ITEM: TIMESTEP
1155000
ITEM: NUMBER OF ATOMS
3344
ITEM: BOX BOUNDS pp pp ff
0.0000000000000000e+00 2.9561777743412595e+01
0.0000000000000000e+00 2.9554237042871520e+01
-8.8921683279491504e+00 4.4289169250706017e+01
ITEM: ATOMS id type q x y z ix iy iz vx vy vz c_eng 
1802 6 0.970367 1.72339 2.50073 -5.82381 0 0 0 0 0 0 -11.9615 
1748 5 -0.552953 2.14166 1.01997 -7.10683 0 0 0 0 0 0 -5.47312 
2036 6 0.848112 0.0809261 0.962754 -7.73073 0 0 0 0 0 0 -10.0686 
1735 5 -0.638237 0.00588022 2.79057 -7.00765 0 0 0 0 0 0 -5.74312 
1835 5 -0.588915 1.86111 1.03911 -4.37975 0 0 0 0 0 0 -5.23438 
1553 6 1.04615 0.842783 0.86917 -2.65107 0 0 0 0 0 0 -12.4677 
1851 5 -0.550529 2.86874 2.15007 -2.36357 0 0 0 0 0 0 -4.99789 
1662 5 -0.679268 1.36426 0.727201 -0.805768 0 0 0 0 0 0 -5.28193 
1877 5 -0.490596 1.02689 3.48164 -1.02956 0 0 0 0 0 0 -5.7687 
1879 6 0.944269 2.7339 2.50451 -0.383048 0 0 0 0 0 0 -12.0905 
111 1 -0.708094 0.476033 2.3469 2.42746 1 0 0 -0.717453 0.803524 6.83033 -6.21108 
565 2 0.612779 0.268662 1.2803 0.804366 1 0 0 1.74832 -0.884625 0.985832 -10.4387 
507 2 0.673759 2.4078 2.33995 2.91433 0 0 0 -0.947211 -1.11313 -2.95008 -10.8429 
248 1 -0.652903 3.25112 0.753577 4.05021 0 0 0 1.951 0.45954 1.07764 -6.27504 
122 1 -0.597173 1.55361 3.11639 5.30787 0 0 0 0.522487 3.54264 -4.71824 -6.22351 
430 1 -0.561469 1.5344 1.43398 10.0638 0 0 0 -0.499072 -0.336685 1.77404 -6.78708 
367 2 0.711827 1.40723 3.10277 7.53004 0 0 0 1.43204 -1.52823 1.38592 -10.6947 
484 1 -0.654419 0.621296 1.18657 7.19847 1 0 0 6.91518 -3.87702 2.24522 -6.04386 
567 2 0.708347 1.70436 1.10829 5.51143 0 0 0 1.14159 -1.58485 -2.8698 -10.8595 
1422 4 0.994724 3.21172 3.03491 10.6127 0 0 0 0.242772 -0.0683199 -1.32324 -10.6305 
928 4 0.962903 3.58796 0.0331201 10.4214 0 0 0 -1.6796 -0.387998 -0.535032 -10.6965 
1098 4 0.96967 1.16791 1.32271 12.5965 0 0 0 -0.491184 1.30391 -0.0286587 -10.098 
1143 3 -0.650883 2.43333 3.35984 15.4786 0 0 0 0.563151 12.6616 2.61355 -7.66871 
1117 4 0.953798 3.44046 3.52411 13.7188 0 0 0 -0.160302 -1.07666 -1.76735 -10.0438 
1121 3 -0.550793 1.24312 0.873332 14.7667 0 0 0 0.574926 0.154185 0.316591 -7.25741 
1271 3 -0.64015 2.10129 3.25257 12.1828 0 0 0 0.270162 0.348296 -1.24564 -7.1442 
1175 4 0.956547 2.98297 1.11713 15.8089 0 0 0 2.8364 0.392922 -0.210007 -9.66224 
1339 3 -0.59358 2.73019 0.281861 12.2276 0 0 0 2.81695 -3.23751 -2.37914 -6.75143 
1147 3 -0.544247 2.10273 1.37797 17.6069 0 0 0 5.97923 5.55628 -1.9951 -7.30382 
1173 3 -0.566076 1.11279 3.10153 20.3023 0 0 0 -1.34267 -9.05535 2.58905 -7.36623 
2397 7 -0.559552 0.261371 0.451863 20.8983 1 0 0 -2.48961 -3.21564 -6.55514 -6.54237 
2296 7 -0.587291 0.890104 2.12039 22.8501 0 0 0 -0.865794 0.978006 7.15838 -7.16005 
2507 7 -0.605235 3.28846 0.950335 22.7157 0 0 0 2.32065 7.40101 3.6534 -7.6504 
2398 8 1.05346 1.90034 1.29871 21.2849 0 1 0 0.126139 0.39668 -1.518 -9.42338 
2500 8 0.998959 0.713309 2.75563 18.4536 1 0 0 -0.792121 1.00032 1.55533 -9.44094 
2147 7 -0.633294 3.65906 2.33312 20.5241 0 0 0 0.80615 0.529183 7.53676 -7.40494 
3018 10 1.03849 1.20364 1.59069 27.6728 0 0 0 0.0196672 -0.571474 0.148438 -9.70124 
3067 9 -0.679815 3.0067 1.46181 30.3488 0 0 0 0 0 0 -6.9944 
3041 9 -0.516992 1.48329 3.22483 28.6783 0 0 0 0 0 0 -6.72731 
3191 9 -0.598692 1.87539 3.11622 25.6054 0 0 0 1.71872 3.14744 0.163479 -7.63856 
2951 9 -0.558912 0.436524 0.882129 25.9147 0 0 0 0.155585 4.34095 3.82975 -7.18706 
3143 9 -0.497845 0.431219 0.959056 29.5551 1 0 0 0 0 0 -6.53461 
3095 10 0.982818 1.62674 2.89946 30.8277 0 0 0 0 0 0 -9.89926 
2309 8 0.996845 1.92559 1.39066 24.4535 0 0 0 -0.822354 0.889184 0.397185 -9.3442 
2814 9 -0.606985 3.55894 2.14304 27.4819 0 0 0 -4.91296 -0.0242376 2.48707 -7.50334 
3190 9 -0.490711 0.786258 1.77336 32.0981 1 0 0 0 0 0 -6.08097 
1684 6 0.747708 0.444993 4.47931 -7.87932 0 0 0 0 0 0 -9.55491 
1477 6 0.980569 3.45833 7.11937 -5.47067 0 0 0 0 0 0 -12.2008 
1857 5 -0.515664 2.03062 5.78686 -5.97954 0 0 0 0 0 0 -5.3536 
1590 6 1.07064 0.508287 5.42552 -4.74455 0 0 0 0 0 0 -12.1015 
1975 5 -0.439345 2.43466 3.78813 -7.65315 0 0 0 0 0 0 -5.02737 
1821 6 0.993498 3.36728 4.02902 -3.5146 0 0 0 0 0 0 -12.2635 
1825 5 -0.555817 1.50767 3.7218 -4.38085 0 0 0 0 0 0 -5.78846 
1909 5 -0.637414 0.0620709 7.24397 -4.24721 0 0 0 0 0 0 -5.46296 
1818 5 -0.472896 2.15295 5.8426 -2.82165 0 0 0 0 0 0 -5.65954 
339 1 -0.616437 2.4816 4.14241 1.34592 0 0 0 -1.76252 -8.52589 5.74616 -5.68049 
1896 6 0.954349 3.05508 5.78875 -0.958883 0 0 0 0 0 0 -11.786 
1641 5 -0.650006 1.11567 5.99673 -0.226154 0 0 0 0 0 0 -5.61445 
1664 6 1.00404 0.000928749 6.49601 -1.72773 0 0 0 0 0 0 -12.4915 
400 2 0.663996 2.93826 6.00594 2.28999 0 0 0 0.738892 2.09932 0.835638 -10.5674 
428 2 0.696215 0.523257 4.4646 0.873347 0 0 0 0.31549 -0.147303 -0.44537 -11.345 
579 1 -0.641079 1.2441 5.58162 3.42899 0 0 0 -0.665941 0.323743 0.176959 -6.28353 
114 2 0.705777 0.16068 3.86955 3.95172 0 0 0 -1.48288 -1.79573 0.309498 -10.909 
202 2 0.697375 0.377995 5.77856 6.4565 1 0 0 -1.56125 -1.54156 -1.69497 -10.7373 
142 1 -0.652367 2.32504 5.32397 6.81102 0 0 0 0.40546 6.57782 2.01942 -6.52351 
980 4 0.942932 1.51022 5.55664 9.54224 0 0 0 -0.429355 -0.330964 -0.571354 -10.739 
310 2 0.71864 3.27044 4.762 5.03348 0 0 0 1.46205 0.403979 -0.370123 -11.1209 
55 1 -0.675364 2.45259 3.90659 9.04721 0 0 0 1.02005 1.04854 -3.22401 -6.74889 
581 2 0.647587 2.94575 7.36707 6.80149 0 0 0 -1.67234 -0.549408 -0.541447 -10.5453 
481 1 -0.702025 0.00606405 6.23414 8.36236 0 0 0 -2.51747 -3.9498 4.51388 -6.30842 
580 1 -0.6473 3.45812 6.78842 4.49063 0 0 0 1.76313 -1.29473 5.3413 -6.35219 
2393 8 0.967495 0.626626 3.82169 15.4565 0 0 0 -1.77136 0.440453 1.21281 -9.74099 
891 3 -0.551767 0.977331 6.15843 16.1961 0 0 0 -0.933513 -4.64424 2.81339 -6.84898 
37 1 -0.597276 1.75834 6.1076 11.231 0 0 0 4.26859 -7.59691 0.411423 -6.22481 
1114 3 -0.541453 1.50724 5.45512 13.8153 0 0 0 0.36065 -2.17284 1.9581 -6.81184 
1192 4 1.06206 2.78536 6.76546 14.9234 0 0 0 2.6499 -1.5992 -0.040716 -10.1286 
762 3 -0.634923 3.47532 5.90583 16.5768 0 0 0 0.420594 2.92183 -3.09163 -7.24914 
886 4 1.01995 0.351485 4.5307 12.3571 0 0 0 -0.189811 0.572705 0.391543 -10.2944 
2304 8 1.03017 0.495566 4.91315 21.4386 1 0 0 -0.115072 -2.35906 -0.306301 -9.40824 
2521 7 -0.56281 1.98888 5.73154 20.3004 0 0 0 -0.175809 -3.6641 -0.910373 -7.51899 
2202 7 -0.516944 1.83548 4.60763 22.9927 0 0 0 -2.62536 4.0649 6.41656 -7.3813 
937 3 -0.635762 2.64632 3.88755 18.2512 0 0 0 1.45213 -3.27363 3.621 -7.29853 
2551 8 1.01202 1.71408 5.85271 18.0977 0 0 0 1.26631 1.17453 -1.06085 -9.99196 
2618 8 0.981905 3.39115 4.16557 20.1416 0 0 0 -0.125857 0.205664 -1.89303 -9.59525 
2151 7 -0.585908 0.0584595 4.66516 18.2384 1 0 0 1.73732 6.62365 2.56003 -7.39916 
2599 7 -0.556643 3.60323 6.84828 22.4505 0 0 0 3.54766 4.95709 1.03733 -7.36781 
2900 10 1.00779 0.766131 4.57703 24.7856 0 0 0 0.366074 0.167576 0.946733 -9.47593 
3034 9 -0.642463 2.77079 4.61549 30.302 0 0 0 0 0 0 -7.03418 
3146 10 0.988033 0.648785 7.19619 26.5455 0 0 0 1.96453 0.614773 1.96602 -9.4424 
3073 9 -0.509478 1.76171 5.48792 27.4795 0 0 0 3.30285 4.29897 6.06268 -6.76804 
2693 10 0.977491 3.02058 6.2212 28.7987 0 0 0 -1.05418 1.33646 -1.47978 -9.77927 
3125 9 -0.601964 0.142122 6.06404 29.6391 0 0 0 0 0 0 -7.52608 
3184 9 -0.50011 1.05831 6.70418 24.6815 1 0 0 -4.46849 -0.0775345 -2.76011 -7.09664 
3344 9 -0.530282 3.57537 5.56938 25.4054 0 0 0 -0.733268 0.333924 -0.225704 -7.23996 
3093 9 -0.581314 0.670406 4.44347 31.9083 0 0 0 0 0 0 -6.60759 
3136 9 -0.595018 0.779616 7.26038 32.4875 0 0 0 0 0 0 -6.46715 
2857 9 -0.538162 3.60788 6.06139 32.4556 0 0 0 0 0 0 -6.34809 
2880 10 0.932037 1.54412 6.02841 31.2853 0 0 0 0 0 0 -9.78383 
1668 5 -0.477013 1.63961 10.6747 -7.73594 0 0 0 0 0 0 -4.68655 
1710 6 0.979658 3.37974 9.89157 -7.55904 0 0 0 0 0 0 -11.2623 
1995 5 -0.560504 1.79051 8.27658 -5.98123 0 0 0 0 0 0 -5.40137 
1930 6 0.872242 0.671446 7.74543 -7.51036 0 0 0 0 0 0 -10.9298 
1697 5 -0.557735 3.30812 10.396 -5.66731 0 0 0 0 0 0 -5.20307 
1842 5 -0.401034 2.53344 8.15847 -8.52032 0 0 0 0 0 0 -4.40341 
2066 6 1.02493 1.28842 8.79161 -4.10193 0 0 0 0 0 0 -12.2705 
1595 5 -0.544792 3.06348 8.26772 -3.57222 0 0 0 0 0 0 -5.39375 
2025 5 -0.588278 1.63217 10.6268 -3.32851 0 0 0 0 0 0 -5.51488 
1628 5 -0.659419 3.03501 10.4076 -0.960219 0 0 0 0 0 0 -5.67074 
1920 5 -0.573179 0.902421 8.32643 -2.0179 0 0 0 0 0 0 -5.84469 
1504 6 0.941224 1.04983 10.0827 -1.02812 0 0 0 0 0 0 -11.9078 
380 2 0.689735 0.465539 7.82455 0.990112 0 0 0 -0.943686 -0.00914277 0.325879 -11.1595 
423 1 -0.623252 0.537406 9.86486 0.887571 0 0 0 -4.71202 0.364016 -1.18898 -5.96307 
137 2 0.67531 1.43717 7.44848 3.99551 0 0 0 -2.30894 -2.45049 0.905244 -10.5029 
663 1 -0.595977 2.55718 7.8305 1.25018 0 0 0 5.24626 6.03677 -9.61742 -6.20637 
530 2 0.703416 3.38241 9.59792 0.917874 0 0 0 -0.426297 1.92356 -0.0516613 -11.4356 
345 1 -0.603292 1.9691 9.39292 3.67691 0 0 0 -3.15232 0.720322 -2.63048 -6.39509 
213 2 0.683735 0.0483568 10.1433 2.9301 0 0 0 1.09381 0.9778 -0.251864 -10.8458 
1138 3 -0.656842 2.20344 9.66374 10.9412 0 0 0 -1.90381 0.281536 -7.97917 -6.92671 
1085 3 -0.623292 0.874656 9.86344 8.19673 0 0 0 -0.382703 -1.19241 -1.06695 -6.79948 
100 1 -0.638086 0.707122 7.91489 5.86936 0 0 0 3.38737 -2.43268 -1.27157 -6.73428 
614 2 0.732261 1.39027 10.1193 6.11797 0 0 0 -0.448184 1.76121 -0.558946 -11.1003 
1006 4 0.89814 2.80906 9.72526 9.12577 0 0 0 -2.16455 -0.0133474 -0.00886473 -10.8373 
577 1 -0.639943 3.36567 9.22179 6.25275 0 0 0 -6.64728 3.03369 2.08776 -6.64151 
480 1 -0.649228 2.49248 7.51387 8.92918 0 0 0 3.25299 -1.76856 -8.03404 -6.90846 
1362 4 0.868482 0.0911366 8.13322 8.75394 0 0 0 -0.143977 -0.60192 -0.574695 -10.8289 
474 1 -0.581533 3.0136 7.7357 13.1773 0 0 0 5.38544 4.22886 -3.45196 -6.79742 
993 3 -0.605782 2.25573 8.39414 15.8091 0 0 0 3.29544 4.07148 -5.78957 -7.04707 
1115 3 -0.618582 0.678287 10.0779 16.9647 1 0 0 -4.98518 -5.25551 1.2867 -7.17489 
800 4 1.03148 1.08264 9.90428 14.9338 0 0 0 -0.317992 -0.730493 -1.59827 -10.0733 
1334 3 -0.649342 1.33096 10.7561 13.0511 1 0 0 -6.70909 1.73725 -4.14795 -6.9725 
922 4 1.00002 1.67812 7.81272 11.8217 0 0 0 2.13635 0.364758 -1.80794 -10.2242 
1291 3 -0.556416 0.397269 8.276 13.5831 0 0 0 -1.87411 3.50148 -0.245963 -7.1616 
780 4 1.04394 3.11891 10.9485 12.2991 0 0 0 2.16579 0.443082 0.266244 -10.4521 
1321 3 -0.421843 2.91441 10.842 15.593 0 0 0 -3.30445 0.0992427 3.10258 -6.56719 
1024 4 0.955807 0.12922 10.3846 11.535 1 0 0 -2.03502 0.539796 -0.631798 -10.3947 
2549 8 1.02288 2.87743 8.6581 22.9185 0 0 0 -0.0472788 1.54592 -1.17968 -9.38555 
1216 3 -0.644577 0.712543 7.59769 18.4279 0 0 0 0.946544 -12.1628 -1.11315 -7.35758 
2205 7 -0.600215 2.76738 8.815 20.8017 0 0 0 5.15131 -2.93996 -2.63301 -7.08581 
2177 7 -0.538073 0.880401 7.5957 22.1595 1 0 0 -7.5273 -0.974949 -0.332326 -6.83179 
2443 7 -0.452843 1.33437 9.88164 23.1087 1 0 0 1.88603 0.247985 -2.22478 -6.56129 
2270 7 -0.595832 0.448552 9.79636 19.6645 1 0 0 2.29379 1.97282 0.771524 -7.0919 
2417 8 1.02847 0.381883 7.98924 20.3792 0 0 0 -1.02878 0.968369 0.11948 -9.60674 
2256 8 0.988749 2.13913 10.7136 20.7097 0 0 0 -0.271201 -0.678584 1.41664 -9.52319 
2306 7 -0.571124 3.46989 10.7258 22.2129 0 0 0 3.99331 2.05756 -3.1025 -7.01289 
924 3 -0.592712 2.56154 10.9012 18.7394 0 0 0 1.54962 1.59012 -2.12528 -7.44947 
2178 8 0.99306 2.21318 8.95599 17.7405 0 0 0 -0.734424 -0.880396 -2.51279 -10.0019 
1210 3 -0.612437 3.20735 7.44766 18.6631 0 0 0 5.36045 1.08195 -0.139402 -6.98869 
3121 9 -0.632209 0.152498 8.93177 30.2329 1 0 0 0 0 0 -7.30861 
3058 9 -0.510307 3.47282 8.31799 24.7339 0 0 0 1.13884 -3.0771 -3.38301 -7.10688 
2913 9 -0.569632 3.15335 10.4804 28.126 0 0 0 5.29764 -5.45338 0.758879 -7.57313 
3005 9 -0.547083 1.93996 10.2272 25.745 0 0 0 2.16819 -2.07643 0.45371 -7.12357 
3211 9 -0.614564 1.93635 8.11076 27.6552 0 0 0 6.51675 -0.978938 -3.08116 -7.36996 
2926 10 1.01645 3.45641 9.01962 26.4573 0 0 0 1.56997 1.44072 0.615055 -9.37941 
3282 10 1.01663 1.92494 9.26649 29.2311 0 0 0 0 0 0 -9.72105 
2811 9 -0.67629 2.54888 7.49947 30.2657 0 0 0 0 0 0 -7.48148 
3241 9 -0.587619 2.09779 10.6572 30.7246 0 0 0 0 0 0 -7.25491 
2884 9 -0.589501 0.0895412 10.0249 27.9025 0 0 0 -4.06432 -0.450888 3.30094 -7.18945 
2844 9 -0.515177 2.70548 9.05393 32.7021 0 0 0 0 0 0 -6.10059 
2720 10 0.960941 0.585923 9.23151 32.092 0 0 0 0 0 0 -9.91687 
2980 9 -0.557451 0.970355 10.9071 33.3026 0 0 0 0 0 0 -6.28722 
1493 5 -0.589796 2.35167 13.0264 -5.98123 0 0 0 0 0 0 -5.54221 
1511 6 0.956771 1.0972 12.476 -7.27982 0 0 0 0 0 0 -10.8028 
1536 6 1.01957 3.55721 14.5644 -5.53605 0 0 0 0 0 0 -12.4155 
1840 5 -0.658268 0.144896 14.3122 -7.28475 0 0 0 0 0 0 -5.37904 
1539 5 -0.58698 0.627003 13.0299 -4.04772 0 0 0 0 0 0 -5.46347 
1484 6 1.06948 2.9102 11.6962 -4.45009 0 0 0 0 0 0 -12.3494 
1939 5 -0.571895 2.99602 12.8627 -2.9592 0 0 0 0 0 0 -5.07653 
1437 6 1.00106 0.700829 13.5899 -2.07916 0 0 0 0 0 0 -12.5557 
2018 6 1.00511 3.42451 12.3284 -1.12582 0 0 0 0 0 0 -12.4416 
1764 5 -0.710199 1.58056 13.0106 -0.521059 0 0 0 0 0 0 -5.30875 
586 1 -0.613932 2.1301 13.3812 3.1192 0 0 0 4.1215 -4.02654 2.03022 -6.07573 
146 2 0.667709 1.1968 12.2092 1.14791 1 0 0 -0.673909 -2.0074 -1.57266 -10.8957 
398 2 0.705457 2.83603 11.4249 3.56873 0 0 0 -0.649282 -0.668072 -3.22938 -10.9358 
697 1 -0.676321 3.1263 11.523 1.52987 0 0 0 4.85244 4.0923 0.884353 -6.08879 
665 2 0.714027 0.342082 12.8048 4.24498 1 0 0 -2.20592 0.67165 -2.7678 -10.9168 
807 4 0.891154 1.02984 12.4741 9.30052 0 0 0 1.3645 1.19579 -0.446293 -10.7544 
218 1 -0.589361 0.414566 13.1219 7.49624 0 0 0 -1.20867 -0.286153 2.79799 -6.56429 
416 2 0.731514 2.27567 13.311 6.59854 0 0 0 0.926927 -0.402832 -0.599755 -11.0339 
572 1 -0.659196 1.83831 11.8126 5.32855 0 0 0 4.08611 -2.07188 4.5785 -5.99891 
690 1 -0.6387 2.88823 11.7071 8.21255 0 0 0 3.96347 -6.46697 1.28511 -6.7751 
491 1 -0.662267 0.868478 14.5306 10.037 0 0 0 -1.62924 -3.86651 -3.93253 -6.91743 
39 1 -0.660085 2.94779 14.6883 8.01617 0 0 0 0.813369 -2.10425 -0.0924551 -6.91204 
956 3 -0.629602 2.48741 12.4074 10.8047 0 0 0 -4.49443 -6.74321 1.0217 -6.75023 
733 4 0.986617 0.870395 12.9084 13.6589 0 0 0 -1.52769 0.687005 -1.13688 -9.8572 
789 3 -0.548958 1.47767 13.2001 15.7031 0 0 0 3.67941 3.60473 -7.1891 -7.35558 
2408 8 0.99452 1.09818 12.1392 17.3436 0 0 0 -3.00286 0.01423 1.58853 -9.62087 
905 3 -0.518061 3.09888 12.7312 13.2954 0 0 0 2.2288 0.950168 1.74579 -6.86712 
832 4 0.936673 2.58041 14.4612 11.2784 0 0 0 -0.326551 -0.780495 -0.288852 -10.5241 
1136 3 -0.567787 1.26562 14.733 13.1489 0 0 0 -1.76603 4.70401 -0.646678 -6.86001 
2453 7 -0.570925 0.426535 12.1775 24.0696 0 0 0 -3.49648 -0.727734 0.706086 -7.47033 
1060 3 -0.535915 2.46636 12.7583 20.8914 0 0 0 1.29441 -6.93607 -4.72789 -7.24356 
2260 8 0.96003 2.4968 14.3293 19.4757 0 0 0 1.81834 -0.0792353 0.350039 -9.50747 
2506 8 0.934788 0.869545 13.2849 21.982 1 0 0 0.670211 -0.0453472 1.23072 -9.49389 
2242 7 -0.601515 2.57261 13.4296 23.5208 0 0 0 -0.145416 -4.16386 -0.0206175 -7.52176 
1274 3 -0.5845 0.566101 13.0293 19.0008 0 0 0 6.89117 7.78099 2.83226 -7.23389 
2570 8 0.980925 2.31134 11.3996 24.0932 0 0 0 2.72871 -1.31428 0.588016 -9.43719 
1235 3 -0.638712 3.09023 13.2733 17.8746 0 0 0 -2.0375 -1.06027 -5.18696 -7.21441 
2197 7 -0.507261 -0.00736654 11.5821 21.353 1 0 0 0.195369 -2.96229 1.11579 -7.13748 
2709 9 -0.644466 0.755596 12.4091 28.7579 0 0 0 1.25801 2.84191 -4.58306 -7.54319 
2876 9 -0.604702 2.39363 12.8612 26.3845 0 0 0 2.93851 -3.90505 -1.70049 -7.43508 
2757 10 0.990268 1.24395 14.3534 24.9143 0 0 0 -1.7664 -1.06371 -0.356285 -9.36851 
2727 10 0.971012 1.0916 11.6388 27.0364 0 0 0 -0.842989 -1.05426 -0.626252 -9.51515 
2700 10 0.944148 2.69023 12.3767 29.6868 0 0 0 0 0 0 -9.69168 
3056 9 -0.553875 0.549719 14.6288 26.8938 0 0 0 -2.80305 1.66227 -1.67161 -7.27674 
3062 9 -0.634887 2.19421 14.481 29.8338 0 0 0 0 0 0 -7.63893 
2979 9 -0.588239 3.20763 12.9323 33.1985 0 0 0 0 0 0 -6.36112 
2755 9 -0.602728 0.96112 12.9756 31.4267 0 0 0 0 0 0 -6.92768 
3083 10 0.922761 2.04059 14.2906 32.4858 0 0 0 0 0 0 -9.20129 
3194 9 -0.515345 0.330672 14.1629 33.6452 0 0 0 0 0 0 -5.94428 
3234 10 0.985193 2.80977 11.0873 32.5951 0 0 0 0 0 0 -9.48739 
1794 5 -0.498354 0.0641523 16.4934 -5.53735 0 0 0 0 0 0 -5.98832 
1660 5 -0.568066 2.53153 15.5534 -7.05451 0 0 0 0 0 0 -5.32035 
1494 5 -0.515697 1.24747 17.7266 -8.24278 0 0 0 0 0 0 -4.66427 
1541 6 0.890965 0.928208 15.8977 -8.1644 0 0 0 0 0 0 -10.3794 
1868 6 0.967999 3.57655 17.2853 -7.26231 0 0 0 0 0 0 -11.9233 
1429 5 -0.608877 2.46663 18.2199 -5.89243 0 0 0 0 0 0 -5.48693 
1846 5 -0.559895 2.20539 15.3183 -4.18135 0 0 0 0 0 0 -5.9257 
2035 6 0.957747 1.45096 17.2998 -4.38656 0 0 0 0 0 0 -12.3082 
1513 5 -0.685783 3.21668 17.5718 -3.29097 0 0 0 0 0 0 -5.40541 
1867 6 0.97944 3.45805 15.6137 -2.53379 0 0 0 0 0 0 -12.3012 
1890 5 -0.665615 0.509137 17.86 -2.34134 0 0 0 0 0 0 -5.38151 
1813 5 -0.636835 3.21748 16.8685 -0.757449 0 0 0 0 0 0 -5.45061 
1978 5 -0.588349 0.981497 15.4491 -1.62043 0 0 0 0 0 0 -5.49868 
311 2 0.607012 2.32406 15.2126 -0.018074 0 0 0 1.10396 -0.569487 0.883533 -10.6807 
77 1 -0.658245 1.71027 17.2829 2.13534 0 0 0 0.198251 1.23637 0.199727 -5.98081 
2050 6 0.926185 2.30917 18.3188 -1.79829 0 0 0 0 0 0 -11.8513 
147 2 0.649598 1.93434 18.1648 3.96763 0 0 0 0.177677 -1.27003 1.31576 -10.6026 
360 2 0.625854 1.66987 15.4261 3.03593 0 0 0 0.288461 -0.212442 0.0896024 -10.1991 
466 2 0.70756 3.63839 17.5937 1.47266 0 0 0 -0.353282 -0.832765 1.67579 -11.2438 
609 1 -0.64855 1.95192 15.222 5.39878 0 0 0 -0.58415 -1.96881 -1.58172 -6.66063 
243 2 0.658819 3.11479 16.5194 6.50291 0 0 0 -1.87028 -0.00768433 0.0348679 -10.733 
637 1 -0.583351 0.24702 18.3424 5.45941 0 0 0 -3.12831 2.37305 1.1396 -6.67707 
837 4 0.861745 0.985778 15.4516 8.29448 0 0 0 -1.39854 0.821579 -1.5651 -10.6492 
790 3 -0.62594 2.66902 16.5623 10.5424 0 0 0 -1.17111 3.58827 -1.29763 -6.72112 
588 1 -0.633873 1.67598 17.4209 7.83081 1 0 0 5.28648 4.03439 -4.78401 -6.78608 
1268 4 0.918146 1.8705 18.1964 9.77851 0 0 0 -0.792757 -1.36876 1.26777 -10.761 
499 2 0.67387 0.00256515 15.9044 5.31239 0 0 0 -0.323595 2.14282 -0.88875 -10.4898 
1346 4 0.996652 0.783028 16.6244 13.2032 0 0 0 -1.68332 0.656083 -0.071634 -10.0242 
725 3 -0.655299 0.745215 17.965 11.7299 0 0 0 -1.28758 -6.5835 -4.85792 -7.14091 
1275 3 -0.641715 1.27863 16.6875 15.1034 0 0 0 1.63944 4.61127 4.21612 -7.37441 
906 3 -0.566917 3.56474 15.473 12.7348 0 0 0 -0.225706 -2.18565 2.93071 -6.48676 
1034 3 -0.611432 2.82979 18.1032 13.2684 0 0 0 2.6768 -1.10979 2.91298 -7.31889 
2212 8 1.06091 3.09444 17.6812 15.3014 0 0 0 -1.88597 1.1949 -1.04314 -9.39916 
2271 8 0.957731 1.75455 15.0687 16.2035 0 0 0 -0.88835 -0.987375 -1.71338 -9.59113 
1142 3 -0.642256 3.58969 15.4366 15.504 0 0 0 4.23013 -1.24571 -1.50919 -7.50044 
759 3 -0.51874 2.49866 18.3984 17.005 0 0 0 0.773478 -2.19266 -3.66785 -7.0931 
2614 7 -0.629624 3.12814 17.512 22.9668 0 0 0 -2.30342 -1.09144 3.67484 -7.48886 
2509 8 1.02484 1.80769 17.5588 18.8394 0 0 0 0.361101 -0.0396038 1.6917 -9.4126 
2529 7 -0.577506 1.31636 15.663 23.3264 0 0 0 -1.88695 -0.973257 0.221781 -7.44821 
2201 8 0.985408 3.24044 15.6316 22.3651 0 0 0 0.108915 2.24307 1.28765 -9.53938 
1109 3 -0.628815 2.23715 15.7017 18.1249 0 0 0 4.4154 -7.41381 -2.58357 -7.39505 
2420 7 -0.489566 1.40683 17.8587 20.8318 0 0 0 5.49157 -3.86691 -3.45928 -7.04291 
1186 3 -0.592373 1.18282 15.1424 20.6853 0 0 0 1.04268 -0.395071 2.62452 -7.31371 
2566 8 1.02395 1.71342 17.9058 24.2628 0 0 0 -0.774462 0.536124 1.44743 -9.52428 
2440 7 -0.624847 0.15269 17.9972 23.0451 1 0 0 1.80361 -1.38347 1.38598 -7.12677 
915 3 -0.629713 0.0287448 17.7258 17.8984 0 0 0 3.44501 0.770859 -0.213249 -7.42595 
3096 9 -0.476993 2.95028 15.5349 25.8004 0 0 0 -0.612014 -3.61178 0.671827 -7.22908 
2645 9 -0.589735 1.55061 17.0467 28.004 0 0 0 5.71278 -0.047724 -3.2457 -7.1622 
2710 9 -0.513219 0.450521 17.1359 25.5775 0 0 0 -3.20412 -0.476739 -6.96951 -7.08095 
2729 9 -0.653262 2.71023 17.4706 30.2958 0 0 0 0 0 0 -6.89218 
2663 9 -0.645933 2.86821 18.1817 25.9522 0 0 0 -1.22685 3.13393 4.36629 -7.52745 
3251 10 1.00249 1.06638 16.6474 29.982 0 0 0 0 0 0 -9.83705 
2779 10 1.02558 3.51161 17.782 28.3458 0 0 0 0 0 0 -9.9947 
2752 10 0.944105 2.39169 14.8246 27.7278 0 0 0 -0.957955 0.0300356 0.876024 -9.60732 
3029 9 -0.514248 3.44791 15.6078 32.242 0 0 0 0 0 0 -6.50276 
3106 9 -0.626607 0.521264 16.2615 31.8065 0 0 0 0 0 0 -7.36576 
3158 10 0.817542 0.315729 18.1942 32.4367 1 0 0 0 0 0 -8.62417 
3266 10 0.893335 3.66119 18.3936 31.6653 0 0 0 0 0 0 -9.19102 
1972 6 1.03537 0.887688 19.2003 -7.0092 0 0 0 0 0 0 -12.0506 
1967 5 -0.588781 2.06942 20.8109 -6.40046 0 0 0 0 0 0 -5.60117 
1979 5 -0.552461 0.528737 19.2868 -4.62812 0 0 0 0 0 0 -5.74242 
1811 5 -0.277944 0.696476 20.3646 -8.59578 0 0 0 0 0 0 -3.71982 
1447 5 -0.444468 3.59974 18.9335 -8.3861 0 0 0 0 0 0 -4.57093 
1658 6 0.984603 2.04358 20.7259 -4.37171 0 0 0 0 0 0 -12.2566 
1619 5 -0.678499 1.99627 20.1223 -2.38092 0 0 0 0 0 0 -5.56629 
103 1 -0.554801 1.57451 20.0834 3.22187 0 0 0 4.91098 9.07338 5.92607 -6.23898 
1918 6 1.01199 2.04631 21.6443 -1.14409 0 0 0 0 0 0 -12.3466 
1435 5 -0.633395 0.0227702 21.8237 -1.77234 0 0 0 0 0 0 -5.65633 
208 1 -0.616523 1.9659 21.5882 0.88335 0 0 0 -5.02447 0.92425 -0.188763 -5.65373 
260 1 -0.596439 2.88073 19.1462 0.422074 0 0 0 -3.57929 -0.677295 -5.69209 -5.78144 
407 2 0.675481 3.46618 20.8693 3.75128 0 0 0 2.57546 1.06421 0.991235 -10.6283 
280 2 0.689593 0.341349 21.3838 2.01135 0 0 0 -2.08334 -0.349255 -1.75546 -11.0057 
653 2 0.643794 0.833905 18.677 0.652983 0 0 0 -0.874402 0.542414 -0.0963513 -10.9227 
263 2 0.715375 1.72012 19.5041 6.83528 1 0 0 -1.383 1.81979 2.41538 -10.7763 
1396 4 0.847559 0.506589 21.5294 9.23289 0 0 0 -1.22209 -1.21291 0.149389 -10.294 
532 1 -0.616144 1.10579 21.1111 5.84575 0 0 0 7.24918 3.03064 1.78632 -6.19176 
879 4 0.870946 3.44948 20.9857 9.82597 0 0 0 -0.552824 3.2956 -1.78718 -10.3492 
834 3 -0.604448 3.11495 20.4398 8.02539 0 0 0 2.86713 5.89433 -3.11342 -6.83629 
1263 3 -0.585371 1.43072 20.1164 10.4566 0 0 0 -2.90144 -1.7994 2.15448 -6.71204 
590 1 -0.59003 0.103994 19.7686 8.22629 0 0 0 -4.89111 -2.80966 4.99006 -6.56229 
131 1 -0.662423 3.31371 18.5076 5.58354 0 0 0 -0.307621 -2.59662 11.1355 -6.61586 
786 3 -0.507304 3.15187 21.0756 16.6438 0 0 0 -1.63494 9.47539 -1.47494 -6.9005 
1283 4 1.00361 3.32355 21.8282 14.8285 0 0 0 -0.571661 -1.90194 -0.543503 -9.63735 
912 3 -0.652278 2.795 21.2611 12.7304 0 0 0 0.707989 7.84194 -3.52806 -7.47249 
1328 3 -0.489456 1.54889 19.6404 14.8814 1 0 0 -1.3819 -2.93779 0.230319 -6.94694 
954 4 1.00329 1.67783 19.5917 12.6644 0 0 0 0.887284 0.891188 -2.18183 -10.1172 
1214 4 1.03222 1.18935 20.0715 16.9135 0 0 0 -0.445005 -0.464154 0.253695 -9.4779 
2222 7 -0.501272 0.432215 21.9893 17.2827 1 0 0 0.780595 -3.22109 2.58498 -6.77599 
749 3 -0.599787 0.0381206 20.7066 12.8252 1 0 0 -4.06718 -6.09218 7.21905 -7.3104 
2494 7 -0.632269 0.943438 21.4368 20.9825 0 0 0 -7.21399 -2.53569 -5.39142 -7.5202 
2390 8 0.980692 2.9985 21.3851 23.3057 0 0 0 1.77647 -1.05498 -0.504314 -9.43088 
2474 7 -0.626328 3.06538 20.01 21.7068 0 0 0 -0.304496 4.58144 -0.623677 -7.6461 
2305 8 0.999655 0.721184 19.642 21.7018 0 0 0 2.67724 0.362382 -1.44864 -9.71672 
2182 8 1.0088 3.00435 20.3088 19.778 0 0 0 -0.30588 0.958284 2.43185 -9.43818 
2208 7 -0.607442 1.65626 19.9236 23.9314 0 0 0 5.16411 1.15651 -4.63009 -7.4784 
815 3 -0.616531 1.13422 19.8267 18.959 0 0 0 -0.0671893 1.5343 1.96109 -7.45278 
2187 7 -0.471451 3.60144 18.5435 19.5535 0 0 0 -3.93567 6.19881 -1.18104 -6.88717 
3175 9 -0.65937 3.29861 21.1635 30.7938 0 0 0 0 0 0 -7.70234 
2874 10 0.897761 1.44558 19.8789 30.1297 0 0 0 0 0 0 -9.67432 
2706 9 -0.571673 0.917098 21.6883 29.8939 0 0 0 0 0 0 -7.01676 
2799 10 1.01927 3.26816 20.0586 26.0845 0 0 0 -0.172186 -0.490416 0.85413 -9.52949 
3027 9 -0.612578 1.13816 20.527 26.3937 0 0 0 -3.37501 -1.47042 -5.86383 -6.8531 
3183 9 -0.601433 2.39549 19.4748 28.3753 0 0 0 -1.45733 -0.917008 -2.25904 -7.31956 
2754 9 -0.486463 3.08705 21.9116 25.453 0 0 0 -0.692543 -0.447619 -4.89842 -6.94853 
3316 10 1.00701 0.711362 22.0343 27.7464 0 0 0 0.227097 1.74975 0.463998 -9.57019 
3188 10 0.965262 0.595813 18.8403 27.1288 0 0 0 -0.654494 0.681006 -0.115792 -9.65032 
3195 9 -0.599668 0.0547896 18.5699 30.2141 0 0 0 0 0 0 -7.38687 
3164 9 -0.561991 2.61466 22.0432 28.1152 0 0 0 0.794513 2.78928 -1.27588 -7.03491 
2835 9 -0.674105 1.9453 19.1522 32.1451 0 0 0 0 0 0 -7.15959 
3134 10 0.927637 2.38405 21.277 32.5699 0 0 0 0 0 0 -9.01473 
2651 9 -0.591773 0.500828 21.4778 32.7366 0 0 0 0 0 0 -6.77744 
1948 5 -0.591144 1.19802 24.6912 -5.78399 0 0 0 0 0 0 -5.59365 
2100 6 1.00269 0.556717 22.8001 -6.47164 0 0 0 0 0 0 -11.9868 
1538 5 -0.45669 2.10072 23.027 -7.73334 0 0 0 0 0 0 -4.69096 
1646 5 -0.520792 2.98918 25.5534 -7.62704 0 0 0 0 0 0 -4.84978 
1616 5 -0.602604 3.5802 23.386 -5.14788 0 0 0 0 0 0 -5.44896 
1490 5 -0.557556 1.13554 22.4704 -4.34833 0 0 0 0 0 0 -5.77592 
1849 6 1.0611 2.2643 24.1366 -3.93767 0 0 0 0 0 0 -12.5665 
2102 5 -0.606629 1.02862 25.5222 -3.3119 0 0 0 0 0 0 -5.52359 
2006 5 -0.618994 0.870784 25.1666 -0.832466 0 0 0 0 0 0 -5.01718 
251 2 0.693582 2.58438 23.2864 1.93477 0 0 0 -1.34802 -0.624711 -0.563165 -10.9465 
1987 6 0.987826 2.91476 25.0358 -1.21695 0 0 0 0 0 0 -12.2397 
1959 5 -0.58755 2.28884 23.2878 -2.00933 0 0 0 0 0 0 -5.25274 
167 1 -0.66622 2.58171 25.1049 1.29155 0 0 0 3.48853 -1.4234 1.60597 -5.57535 
363 1 -0.582116 1.86207 23.0246 3.91408 0 0 0 -5.41428 -6.16647 0.40997 -6.09186 
478 2 0.683932 2.78304 25.7169 4.03999 0 0 0 0.415945 0.350079 0.735749 -11.0744 
126 2 0.741958 0.535362 25.6248 1.04882 0 0 0 0.871954 1.47477 1.0481 -11.7975 
303 2 0.748643 0.0814425 23.9143 3.69605 0 0 0 -0.0666719 -1.21617 0.121182 -11.4295 
432 1 -0.649776 3.31792 24.383 5.55699 0 0 0 -1.31458 1.311 -1.20461 -6.11585 
942 3 -0.645689 1.96023 22.7833 10.3195 0 0 0 6.33713 -0.658883 2.80461 -6.9219 
1376 3 -0.499257 1.84643 25.5706 10.6376 0 0 0 -0.313993 1.88053 3.06733 -6.80188 
944 4 0.906105 2.72986 23.9564 8.84473 0 0 0 1.81175 -0.0835828 0.523983 -10.8398 
439 1 -0.623716 2.81087 25.7757 7.8843 0 0 0 -4.87662 1.69336 2.93044 -6.35781 
1018 4 0.86275 1.19951 25.2384 6.80876 0 0 0 -0.367148 0.0169579 -0.42164 -10.8163 
17 1 -0.628628 1.49793 23.0195 7.67068 0 0 0 4.20346 2.61152 -4.69753 -6.32686 
603 2 0.71612 2.5226 22.4888 5.85794 0 0 0 -0.25549 -2.44819 -0.241162 -10.8971 
129 1 -0.548553 0.0368344 25.2033 8.62653 0 0 0 -3.32531 -0.205486 6.94996 -6.37991 
1320 3 -0.688003 1.88578 25.6511 15.5179 0 0 0 -0.617554 -4.92803 -5.77789 -7.669 
1244 3 -0.62964 1.7099 24.1837 12.9437 0 0 0 2.3488 -0.0484827 2.01325 -6.9633 
1145 4 0.978404 2.90801 23.0768 11.9848 0 0 0 1.12964 1.22992 -1.51954 -10.1242 
973 4 0.986125 0.683068 25.6599 13.8187 0 0 0 -0.120519 -0.395263 0.522741 -9.70382 
1398 3 -0.612668 1.59294 22.6798 15.1306 0 0 0 -3.04651 0.673594 -3.02788 -7.37023 
2422 8 0.988291 1.45549 23.9151 16.7063 0 0 0 0.9466 0.313925 -1.93396 -9.36471 
1337 4 0.961856 0.37455 22.6323 13.5607 1 0 0 -0.877598 1.76373 -0.48131 -9.71458 
843 4 0.940109 3.49704 25.1941 14.5378 0 0 0 -1.97498 -1.60425 1.09061 -9.92076 
2862 9 -0.570455 1.18832 25.3489 24.0613 0 0 0 0.696321 -0.960501 -0.146051 -6.86032 
1324 3 -0.538298 2.46896 25.0288 18.1948 0 0 0 4.77818 -0.83195 -1.21643 -7.56441 
2512 8 0.966649 2.37392 23.7629 19.9999 0 0 0 -1.04114 0.847093 0.410285 -9.5474 
2586 8 1.02525 2.65662 24.745 22.9641 0 0 0 0.469726 -2.3637 -0.241423 -9.40819 
2144 7 -0.583712 3.25215 22.9681 21.7441 0 0 0 0.229621 -1.97177 -1.5785 -7.55057 
2427 7 -0.515393 1.17177 22.6244 23.5394 0 0 0 4.42333 4.23654 -0.569732 -7.48835 
2258 7 -0.622455 1.07266 24.5059 21.5624 0 0 0 0.485551 -1.22879 2.41903 -7.28466 
2605 7 -0.570625 0.0941605 23.6347 19.3552 0 0 0 0.665307 -2.25383 -4.14028 -7.29253 
1255 3 -0.611916 2.50285 22.2533 18.816 0 0 0 3.3546 -0.0291884 3.46247 -7.08732 
2199 7 -0.559275 3.22202 25.6599 20.8376 0 0 0 1.83807 -0.0791799 -3.33641 -7.22293 
2739 9 -0.629013 0.0231585 22.8117 25.979 1 0 0 -8.51179 0.238074 3.49516 -7.45398 
3065 10 0.949567 2.23399 23.2132 30.1036 0 0 0 0 0 0 -9.7194 
3294 9 -0.530391 2.39927 24.6502 27.7811 0 0 0 0 0 0 -7.4339 
2938 10 0.962988 0.94842 24.6813 25.8858 0 0 0 -1.1128 -0.00161783 0.235546 -9.25127 
3318 9 -0.635762 0.91715 24.5661 30.415 0 0 0 0 0 0 -7.45302 
3279 9 -0.572949 3.45134 24.5427 25.1954 0 0 0 1.20029 2.6522 5.30034 -7.45658 
3222 9 -0.594505 2.3919 23.3997 32.4246 0 0 0 0 0 0 -6.98866 
3257 10 0.903434 0.341121 23.9208 32.3636 1 0 0 0 0 0 -9.35252 
1464 6 0.985382 1.82022 28.8009 -5.30082 0 0 0 0 0 0 -12.2724 
2080 5 -0.517206 2.0351 27.8803 -6.97495 0 0 0 0 0 0 -5.26625 
1474 5 -0.553119 0.256071 27.2346 -5.26244 0 0 0 0 0 0 -5.68782 
1722 6 0.948402 1.08193 26.092 -7.20737 0 0 0 0 0 0 -11.0144 
2078 5 -0.521755 3.53599 26.4511 -5.07638 0 0 0 0 0 0 -5.68719 
2024 5 -0.60815 2.0346 28.1718 -3.27404 0 0 0 0 0 0 -5.89661 
1434 5 -0.583353 0.527103 27.7247 -0.180191 0 0 0 0 0 0 -5.76956 
531 2 0.645125 1.59146 28.6205 3.06202 0 -1 0 -2.55249 -1.82867 -1.14847 -10.7484 
2028 5 -0.641294 2.98604 26.9306 -0.88299 0 0 0 0 0 0 -5.38652 
1677 6 1.01977 0.653965 27.1368 -2.18933 0 0 0 0 0 0 -12.7512 
1518 6 0.938046 2.43095 28.8061 -0.143219 0 0 0 0 0 0 -12.168 
656 1 -0.713426 3.10464 28.3768 1.76694 0 -1 0 -0.32879 -2.0447 3.23182 -6.00864 
5 1 -0.615958 0.755209 25.9363 3.17794 0 0 0 2.74713 1.84392 5.40172 -6.22808 
497 2 0.741485 3.02055 27.7242 7.92008 0 0 0 0.82304 0.600072 -0.0466093 -11.0044 
509 2 0.683831 0.571654 27.8766 5.76069 0 0 0 1.15651 1.46771 1.97705 -10.6545 
689 1 -0.633859 2.37593 27.5767 4.81754 0 0 0 -2.78602 1.5073 -2.93755 -6.22541 
1044 3 -0.638993 2.07234 28.2966 9.96556 0 -1 0 -0.200218 2.39541 -3.96621 -6.82412 
344 1 -0.654564 0.747219 27.6582 7.69028 0 -1 0 -5.86156 1.72825 2.78201 -6.23653 