ITEM: TIMESTEP
1180000
ITEM: NUMBER OF ATOMS
3344
ITEM: BOX BOUNDS pp pp ff
0.0000000000000000e+00 2.9596981503198066e+01
0.0000000000000000e+00 2.9538180809640945e+01
-8.8921683279491504e+00 4.4289169250706017e+01
ITEM: ATOMS id type q x y z ix iy iz vx vy vz c_eng 
1802 6 0.969904 1.72544 2.49937 -5.82381 0 0 0 0 0 0 -11.9474 
1748 5 -0.552554 2.14421 1.01942 -7.10683 0 0 0 0 0 0 -5.47772 
2036 6 0.847684 0.0810225 0.962231 -7.73073 0 0 0 0 0 0 -10.0559 
1735 5 -0.638188 0.00588722 2.78905 -7.00765 0 0 0 0 0 0 -5.75202 
1835 5 -0.588781 1.86333 1.03855 -4.37975 0 0 0 0 0 0 -5.24183 
1553 6 1.04499 0.843787 0.868698 -2.65107 0 0 0 0 0 0 -12.4501 
1851 5 -0.551147 2.87216 2.14891 -2.36357 0 0 0 0 0 0 -5.00361 
1662 5 -0.687578 1.36588 0.726806 -0.805768 0 0 0 0 0 0 -5.26353 
1877 5 -0.489476 1.02811 3.47975 -1.02956 0 0 0 0 0 0 -5.71896 
1879 6 0.950203 2.73715 2.50315 -0.383048 0 0 0 0 0 0 -12.1504 
111 1 -0.692241 0.449029 2.41773 2.34006 1 0 0 -7.48231 4.83695 9.6547 -6.22262 
565 2 0.624979 0.220487 1.19836 0.742537 1 0 0 0.969312 -2.10169 1.3752 -10.5189 
507 2 0.660986 2.32315 2.35881 2.73747 0 0 0 0.944912 0.694103 -1.20538 -10.7415 
248 1 -0.633645 3.0293 0.615718 4.06434 0 0 0 2.9268 -0.529043 -8.36013 -6.34165 
561 1 -0.641276 3.64645 1.67575 1.22791 0 0 0 -1.36833 -0.941834 -1.63251 -6.02341 
122 1 -0.595716 1.54102 3.35812 5.52153 0 0 0 -3.32095 1.09046 -0.0422568 -6.27286 
430 1 -0.579765 1.33772 1.56481 10.1509 0 0 0 -3.4128 0.667906 3.56931 -6.74899 
367 2 0.722387 1.36286 3.25823 7.64577 0 0 0 -0.406096 0.775918 -0.760583 -10.635 
484 1 -0.629701 0.697561 1.3404 7.35385 1 0 0 4.64244 4.79102 0.741713 -6.08947 
567 2 0.714351 1.88775 1.20042 5.63408 0 0 0 2.48679 -0.850861 -2.0164 -11.033 
1422 4 0.965623 3.2551 3.11471 10.5808 0 0 0 -0.639338 -1.9843 -1.34523 -10.5742 
88 1 -0.669841 0.235 0.120435 4.88829 0 1 0 6.21184 5.17061 -1.93167 -6.24912 
1098 4 0.946311 1.20367 1.35667 12.2246 0 0 0 -1.73917 -1.47914 0.497597 -10.0524 
1143 3 -0.611561 2.31989 3.36421 15.5777 0 0 0 4.87871 -0.439245 -0.221984 -7.51564 
1117 4 0.963509 3.59459 3.51787 13.7398 0 0 0 1.8481 1.01919 1.23737 -9.96653 
1121 3 -0.457997 1.08754 0.659554 14.8429 0 0 0 -2.57833 -4.89618 1.65806 -6.91137 
1271 3 -0.623643 2.22771 3.22714 12.2249 0 0 0 -1.85196 -6.58314 -5.68939 -7.00909 
1175 4 0.981145 2.7237 1.05181 15.8263 0 0 0 -1.59751 -1.8339 0.596249 -9.57353 
1339 3 -0.600772 2.81473 0.376161 12.3308 0 0 0 2.41613 1.95162 -3.2482 -6.90922 
840 3 -0.574251 0.119256 3.03875 13.6499 1 0 0 3.72375 -0.994607 0.631746 -7.06884 
1173 3 -0.537456 1.03928 3.19093 20.4365 0 0 0 -8.44205 -2.017 -7.30263 -7.33536 
2397 7 -0.607464 0.309752 0.549693 20.8489 1 0 0 -0.677736 1.46872 -1.78584 -6.86385 
2296 7 -0.576316 1.07845 2.14369 22.9579 0 0 0 -0.00890456 1.33558 -7.26564 -6.9209 
2507 7 -0.612239 3.26505 0.951449 22.7807 0 0 0 -1.59186 -2.87332 2.54122 -7.11794 
2398 8 1.0446 2.05705 1.08187 21.2413 0 1 0 -1.42332 0.395693 0.439638 -9.54637 
2500 8 1.00706 0.688927 2.64124 18.5393 1 0 0 0.619091 2.47997 -1.04369 -9.59736 
1147 3 -0.549408 2.42043 1.77638 17.8232 0 0 0 -3.44095 1.28185 -0.419852 -7.26686 
2147 7 -0.652312 3.59915 2.21026 20.6359 0 0 0 -1.45381 -1.66122 3.57206 -7.43572 
3018 10 1.0445 1.17111 1.6661 27.6021 0 0 0 0.442926 0.562455 0.789323 -9.78256 
3067 9 -0.676253 3.01028 1.46102 30.3488 0 0 0 0 0 0 -6.97266 
3041 9 -0.517418 1.48506 3.22308 28.6783 0 0 0 0 0 0 -6.66344 
3191 9 -0.621059 1.96703 3.15865 25.7557 0 0 0 2.45124 4.08518 4.83312 -7.71765 
2951 9 -0.617027 0.509259 0.906997 25.7961 0 0 0 -9.3495 1.80554 -0.433688 -7.36733 
3143 9 -0.478522 0.431732 0.958535 29.5551 1 0 0 0 0 0 -6.42706 
3095 10 0.983804 1.62868 2.89789 30.8277 0 0 0 0 0 0 -9.88532 
2309 8 1.0194 1.89519 1.40682 24.5086 0 0 0 0.876235 1.22442 -0.64146 -9.37982 
2814 9 -0.636923 3.58425 2.11216 27.5506 0 0 0 1.10879 -0.376535 -2.10901 -7.41142 
3190 9 -0.491284 0.787194 1.77239 32.0981 1 0 0 0 0 0 -6.07572 
1684 6 0.747327 0.445523 4.47688 -7.87932 0 0 0 0 0 0 -9.54101 
1477 6 0.980194 3.46245 7.1155 -5.47067 0 0 0 0 0 0 -12.1787 
1857 5 -0.515618 2.03304 5.78371 -5.97954 0 0 0 0 0 0 -5.36451 
1590 6 1.07091 0.508893 5.42257 -4.74455 0 0 0 0 0 0 -12.0746 
1975 5 -0.438911 2.43755 3.78607 -7.65315 0 0 0 0 0 0 -5.0302 
1821 6 0.99253 3.37129 4.02683 -3.5146 0 0 0 0 0 0 -12.2451 
1825 5 -0.555818 1.50946 3.71977 -4.38085 0 0 0 0 0 0 -5.79756 
1909 5 -0.636311 0.0621448 7.24004 -4.24721 0 0 0 0 0 0 -5.48829 
1818 5 -0.471881 2.15551 5.83943 -2.82165 0 0 0 0 0 0 -5.67442 
339 1 -0.617301 2.53191 4.15565 1.2258 0 0 0 -3.54557 -1.38081 -1.42499 -5.66326 
1896 6 0.95607 3.05872 5.7856 -0.958883 0 0 0 0 0 0 -11.7577 
1641 5 -0.661702 1.117 5.99347 -0.226154 0 0 0 0 0 0 -5.63094 
1664 6 0.986661 0.000929855 6.49248 -1.72773 0 0 0 0 0 0 -12.3395 
400 2 0.657387 3.05064 5.92247 2.22572 0 0 0 1.47463 0.273587 -1.04136 -10.5587 
428 2 0.698017 0.461019 4.45373 0.822069 0 0 0 0.648871 -0.358045 0.955212 -11.4462 
579 1 -0.593084 1.12845 5.54664 3.42145 0 0 0 1.04646 4.24784 3.79398 -6.33217 
114 2 0.711912 0.186747 3.77828 4.05639 0 0 0 -1.09129 -0.323361 0.662674 -11.01 
580 1 -0.626387 3.58486 6.72269 4.35884 0 0 0 14.9545 2.1206 1.10342 -6.33207 
202 2 0.688763 0.386104 5.87931 6.53603 1 0 0 0.027095 0.651124 -1.28453 -10.7089 
142 1 -0.642615 2.5758 5.45562 6.77264 0 0 0 -1.73019 -0.946535 6.88386 -6.35625 
980 4 0.892957 1.49169 5.60855 9.60459 0 0 0 0.997332 -0.796444 -0.208198 -10.6776 
310 2 0.725659 3.24339 4.7813 4.97492 0 0 0 -1.28896 -0.787854 -1.8192 -11.192 
55 1 -0.688723 2.49404 4.04642 9.00762 0 0 0 -1.76846 8.67705 2.09615 -6.82577 
2393 8 1.00804 0.573987 4.04841 15.6559 0 0 0 -0.165726 -0.659185 -1.47597 -9.74461 
891 3 -0.503859 0.622355 6.51109 16.3426 0 0 0 -6.26278 1.33848 -6.70684 -6.6538 
37 1 -0.596191 1.7327 6.06481 11.5031 0 0 0 2.78232 -3.64504 4.22999 -6.7167 
1114 3 -0.596819 1.33046 5.48131 14.1603 0 0 0 3.38508 2.97705 -2.38057 -6.99227 
1192 4 1.01674 2.72868 6.75531 14.855 0 0 0 0.25622 -0.664989 0.754695 -10.0068 
762 3 -0.637957 3.29369 5.86351 16.5746 0 0 0 -9.18381 -1.30573 -0.0113905 -7.30093 
886 4 1.04316 0.433774 4.5883 12.4793 0 0 0 2.56015 1.93746 0.111181 -10.2804 
2304 8 1.0401 0.468486 4.94126 21.5688 1 0 0 1.37005 -0.744852 0.418276 -9.37544 
2521 7 -0.530421 2.16378 5.8589 20.6285 0 0 0 0.424107 -5.9078 -0.632839 -7.17863 
2202 7 -0.51326 1.88743 4.6354 22.9289 0 0 0 1.20748 -2.4389 3.47763 -7.31402 
937 3 -0.637415 2.52333 4.1808 18.4362 0 0 0 3.69903 -5.91903 4.64558 -6.90106 
2551 8 1.0139 1.72022 5.98016 18.22 0 0 0 0.806977 0.517236 -0.0498438 -9.98754 
2618 8 1.01623 3.30338 4.0583 20.241 0 0 0 -1.23444 -0.952054 -0.86943 -9.71717 
2151 7 -0.580765 0.0761005 4.51965 17.9878 1 0 0 1.25426 3.05916 2.24257 -7.31821 
2900 10 0.952305 0.965227 4.62876 24.9338 0 0 0 0.978859 -0.33333 -1.77346 -9.35327 
3034 9 -0.622526 2.77409 4.61299 30.302 0 0 0 0 0 0 -7.02036 
3146 10 0.950862 0.678735 7.27095 26.7421 0 0 0 1.95641 -0.606571 0.202364 -9.48604 
3073 9 -0.525542 1.65757 5.54271 27.4293 0 0 0 -2.31059 2.09693 0.88432 -7.03983 
2693 10 0.987778 3.09086 6.34247 28.7209 0 0 0 -0.88658 0.990049 -0.582484 -9.90112 
3125 9 -0.600642 0.142292 6.06075 29.6391 0 0 0 0 0 0 -7.51011 
3184 9 -0.515987 1.20282 6.64249 24.6744 1 0 0 3.52321 -0.880902 -1.72005 -7.42909 
3344 9 -0.520592 3.61689 5.51893 25.4956 0 0 0 0.378748 -1.68819 0.31765 -7.09938 
3093 9 -0.582245 0.671204 4.44105 31.9083 0 0 0 0 0 0 -6.60785 
3136 9 -0.596292 0.780544 7.25643 32.4875 0 0 0 0 0 0 -6.47126 
2857 9 -0.539549 3.61218 6.05809 32.4556 0 0 0 0 0 0 -6.3385 
2880 10 0.941546 1.54595 6.02513 31.2853 0 0 0 0 0 0 -9.80097 
1668 5 -0.476865 1.64156 10.6689 -7.73594 0 0 0 0 0 0 -4.69985 
1710 6 0.979407 3.38376 9.8862 -7.55904 0 0 0 0 0 0 -11.2419 
1995 5 -0.560617 1.79265 8.27208 -5.98123 0 0 0 0 0 0 -5.41487 
1930 6 0.871813 0.672246 7.74122 -7.51036 0 0 0 0 0 0 -10.9081 
1697 5 -0.557904 3.31206 10.3904 -5.66731 0 0 0 0 0 0 -5.21789 
1842 5 -0.400734 2.53646 8.15404 -8.52032 0 0 0 0 0 0 -4.40786 
2066 6 1.02684 1.28995 8.78683 -4.10193 0 0 0 0 0 0 -12.2415 
1595 5 -0.544449 3.06713 8.26323 -3.57222 0 0 0 0 0 0 -5.41797 
2025 5 -0.586831 1.63411 10.621 -3.32851 0 0 0 0 0 0 -5.53955 
1628 5 -0.645495 3.03862 10.4019 -0.960219 0 0 0 0 0 0 -5.72353 
1920 5 -0.583108 0.903496 8.3219 -2.0179 0 0 0 0 0 0 -5.89145 
1504 6 0.919843 1.05108 10.0772 -1.02812 0 0 0 0 0 0 -11.7231 
380 2 0.647108 0.607329 7.90034 0.803658 0 0 0 -2.30301 0.364762 -0.896001 -10.8348 
423 1 -0.652155 0.891975 9.98005 1.04674 0 0 0 -3.2376 2.97046 1.96618 -5.96718 
137 2 0.651186 1.43628 7.5724 3.90959 0 0 0 0.194913 -2.10642 0.882466 -10.4814 
663 1 -0.571276 2.58211 7.89993 1.32338 0 0 0 0.383975 5.5782 0.131164 -6.20626 
530 2 0.694813 3.49003 9.78517 1.01954 0 0 0 0.653588 1.30052 -1.60259 -11.404 
345 1 -0.616858 1.86717 9.64537 3.81891 0 0 0 -3.28042 -3.54087 -6.3854 -6.32461 
213 2 0.668102 0.0478192 10.1065 2.86107 0 0 0 0.778353 0.0111295 1.47292 -10.6144 
1138 3 -0.641088 2.39054 9.61777 10.959 0 0 0 -1.50989 3.80063 0.0311153 -6.83496 
1085 3 -0.620722 0.775145 9.92986 8.06406 0 0 0 -6.23166 5.64573 -2.09986 -6.81939 
100 1 -0.666776 0.96219 7.90316 5.92515 0 0 0 0.378483 -4.5576 -2.40351 -6.79433 
614 2 0.741173 1.24314 10.0515 5.97184 0 0 0 -1.1348 1.18686 0.788468 -11.0888 
1006 4 0.91254 2.63461 9.78497 9.07425 0 0 0 -0.979019 -1.4374 1.3238 -10.9478 
480 1 -0.650501 2.35147 7.64087 8.90902 0 0 0 -0.953997 -0.387018 -3.77365 -6.92846 
581 2 0.655846 2.91294 7.51083 6.7462 0 0 0 -0.423981 -1.23524 -1.32506 -10.5512 
577 1 -0.658455 3.65616 9.31988 6.18483 0 0 0 -2.66907 2.31363 -8.44003 -6.51597 
421 1 -0.698082 0.0481446 8.20832 10.7559 0 0 0 0.179335 4.87715 -3.51284 -7.10591 
474 1 -0.58302 3.0312 8.02694 13.205 0 0 0 7.84386 -3.08066 1.35437 -6.85468 
993 3 -0.60265 2.23117 8.44104 15.7074 0 0 0 -0.0538329 3.66806 -2.66621 -7.08983 
1115 3 -0.60696 0.710126 10.0726 16.9261 1 0 0 3.98067 -4.03291 4.23893 -7.17201 
800 4 1.0065 0.914117 9.70084 14.86 0 0 0 -0.780497 0.526494 -0.321139 -10.0065 
1334 3 -0.617759 1.32864 10.7312 13.1116 1 0 0 -1.03141 -2.29211 1.02509 -7.09586 
922 4 0.989486 1.78687 7.88475 11.7625 0 0 0 0.602157 -1.29508 -0.218978 -10.3437 
780 4 1.02876 3.12961 11.0039 12.3532 0 0 0 -1.73858 0.532695 0.360839 -10.4621 
1291 3 -0.575665 0.235619 8.28377 13.3944 0 0 0 0.829851 4.54179 7.76359 -7.14775 
1321 3 -0.371313 3.04797 10.9552 15.5745 0 0 0 1.61478 -5.54609 1.83134 -6.53356 
1024 4 0.895347 0.0530647 10.3588 11.4816 1 0 0 -0.441579 -1.3605 0.516976 -10.3696 
2178 8 0.97893 2.35782 9.06432 17.6816 0 0 0 -1.15364 0.858824 -0.624054 -9.98187 
2549 8 1.01372 2.50131 8.275 23.0124 0 0 0 -2.58859 0.145649 -0.183677 -9.09152 
1216 3 -0.642492 0.786257 7.7964 18.4546 0 0 0 -1.12356 -4.14527 4.54923 -7.26671 
2205 7 -0.572911 2.6846 8.81233 20.8547 0 0 0 0.881759 6.02644 -0.0389885 -7.07809 
2177 7 -0.583622 0.704694 7.52924 22.1436 1 0 0 0.797776 -0.504154 -2.29425 -6.92989 
2443 7 -0.467635 1.38926 9.86406 23.1479 1 0 0 0.147477 -5.00424 1.50116 -6.64041 
2270 7 -0.591795 0.401161 9.96051 19.9423 1 0 0 -4.83688 -4.0036 5.97738 -7.03543 
2417 8 1.04301 0.249715 7.98158 20.3672 0 0 0 -1.71899 1.33762 0.533775 -9.55971 
2256 8 1.00258 2.07477 10.7049 20.6308 0 0 0 -0.544147 -1.42817 0.341582 -9.51356 
924 3 -0.626475 2.48022 10.9487 18.6898 0 0 0 2.24869 3.17578 -1.30354 -7.51935 
2306 7 -0.573454 3.35754 10.9993 22.1317 0 0 0 7.57163 5.00092 0.52579 -6.93818 
1210 3 -0.593731 3.22121 7.38166 18.643 0 0 0 1.87469 0.738612 3.71096 -7.11279 
3121 9 -0.63439 0.15268 8.92692 30.2329 1 0 0 0 0 0 -7.35416 
3058 9 -0.495233 3.43867 8.33501 24.8014 0 0 0 2.43837 1.99385 -0.438837 -7.07623 
2913 9 -0.569755 3.14956 10.6285 28.2434 0 0 0 5.59366 0.632046 -5.51281 -7.41836 
3005 9 -0.574051 2.06937 10.2576 25.9089 0 0 0 3.94422 2.72358 2.91106 -6.98356 
3211 9 -0.666761 2.15281 8.1048 27.7054 0 0 0 2.62182 -0.840128 0.543727 -7.25203 
2926 10 1.03564 3.50084 9.00401 26.5492 0 0 0 0.0424958 0.120096 -0.559949 -9.45232 
3282 10 1.01043 1.92723 9.26146 29.2311 0 0 0 0 0 0 -9.82898 
2811 9 -0.676104 2.55191 7.4954 30.2657 0 0 0 0 0 0 -7.42043 
3241 9 -0.582137 2.10028 10.6514 30.7246 0 0 0 0 0 0 -7.17286 
2884 9 -0.563661 0.100999 10.0112 27.8729 0 0 0 -0.784163 0.121796 4.98881 -7.02249 
2844 9 -0.515006 2.7087 9.04902 32.7021 0 0 0 0 0 0 -6.09456 
2720 10 0.960963 0.586621 9.2265 32.092 0 0 0 0 0 0 -9.92212 
2980 9 -0.557272 0.971511 10.9012 33.3026 0 0 0 0 0 0 -6.28078 
1493 5 -0.589603 2.35447 13.0194 -5.98123 0 0 0 0 0 0 -5.55978 
1511 6 0.956325 1.0985 12.4693 -7.27982 0 0 0 0 0 0 -10.7771 
1536 6 1.01923 3.56144 14.5565 -5.53605 0 0 0 0 0 0 -12.3877 
1840 5 -0.658155 0.145068 14.3045 -7.28475 0 0 0 0 0 0 -5.39606 
1539 5 -0.586437 0.627749 13.0228 -4.04772 0 0 0 0 0 0 -5.48957 
1484 6 1.06892 2.91366 11.6899 -4.45009 0 0 0 0 0 0 -12.3079 
1939 5 -0.574274 2.99959 12.8557 -2.9592 0 0 0 0 0 0 -5.11548 
1437 6 0.999297 0.701664 13.5825 -2.07916 0 0 0 0 0 0 -12.4616 
2018 6 1.01943 3.42859 12.3217 -1.12582 0 0 0 0 0 0 -12.4879 
1764 5 -0.720532 1.58245 13.0035 -0.521059 0 0 0 0 0 0 -5.37127 
586 1 -0.621063 2.03758 13.4348 3.22358 0 0 0 1.98854 0.674853 0.866606 -6.13399 
146 2 0.662067 1.13205 12.169 1.15142 1 0 0 -0.407508 -1.50007 -0.930955 -10.8782 
398 2 0.70486 2.85841 11.5605 3.65905 0 0 0 -2.64388 -0.295887 -2.0718 -10.9353 
697 1 -0.668817 3.22129 11.6983 1.53738 0 0 0 -0.846778 5.58094 -1.34272 -6.07867 
807 4 0.930119 1.08058 12.4577 9.28889 0 0 0 0.83811 0.906345 -2.03862 -10.7989 
218 1 -0.590661 0.336569 13.0262 7.57062 0 0 0 -4.90234 2.83199 2.9193 -6.52018 
416 2 0.727343 2.25184 13.2405 6.71302 0 0 0 2.20433 -0.563025 -1.78027 -10.9958 
572 1 -0.668653 1.93718 11.7513 5.44593 0 0 0 -6.75136 -6.93617 8.12558 -5.9629 
690 1 -0.663944 2.88282 11.7834 8.25589 0 0 0 -0.316405 -0.63664 -0.906884 -6.7216 
491 1 -0.651374 0.905293 14.4741 9.90074 0 0 0 1.35645 0.605781 -2.18409 -6.91156 
39 1 -0.615503 3.35868 14.5225 8.08392 0 0 0 -3.63317 6.92546 -3.14138 -6.66721 
956 3 -0.653128 2.44372 12.3902 10.8395 0 0 0 -4.24149 0.336171 1.15387 -6.72659 
665 2 0.721792 0.264377 12.6454 4.41171 1 0 0 -1.85811 0.339732 -2.07964 -10.9993 
733 4 0.987075 0.875886 12.924 13.7005 0 0 0 -0.34573 -1.0025 0.584183 -9.82329 
789 3 -0.545746 1.43277 13.2096 15.6786 0 0 0 5.67861 -4.09793 -2.51458 -7.25172 
2408 8 0.982113 1.01748 12.0813 17.3929 0 0 0 -1.00086 -0.448351 -0.157436 -9.6951 
905 3 -0.527438 3.04273 12.7172 13.3553 0 0 0 4.92023 6.93044 1.82411 -6.78002 
832 4 0.942518 2.47177 14.343 11.2946 0 0 0 -0.395275 2.07934 0.779241 -10.6126 
1136 3 -0.589912 1.00822 14.6972 13.0332 0 0 0 -5.59072 -1.94505 -5.71547 -6.76854 
2197 7 -0.480578 0.00770419 11.7623 21.5775 1 0 0 -0.0834755 2.97119 -0.475302 -6.86998 
1060 3 -0.525712 2.47713 12.8991 20.7985 0 0 0 1.70392 0.21036 2.12141 -7.10117 
2260 8 0.953402 2.52466 14.3488 19.4356 0 0 0 0.253464 1.13779 0.342315 -9.61161 
2506 8 0.943158 0.897647 13.3211 22.1337 1 0 0 -0.538918 0.247077 2.24753 -9.46277 
2242 7 -0.56976 2.57565 13.3913 23.5837 0 0 0 5.22312 0.52682 4.30214 -7.34165 
1274 3 -0.593468 0.51988 13.1187 19.0637 0 0 0 1.04875 -2.88056 0.115914 -7.34416 
2570 8 1.0321 2.40481 11.2819 24.0735 0 0 0 3.64852 -1.30237 -1.19819 -9.56912 
1235 3 -0.621198 3.04472 13.2858 17.7743 0 0 0 -6.988 1.02929 0.0511018 -7.267 
2709 9 -0.617851 0.766494 12.2706 28.7755 0 0 0 -1.51023 0.134711 4.86516 -7.54326 
2876 9 -0.605396 2.33733 12.8239 26.369 0 0 0 -3.41432 -7.75529 -4.54013 -7.30562 
2757 10 0.98282 1.21886 14.3567 24.9946 0 0 0 -0.684916 0.143557 -0.17637 -9.32153 
2727 10 1.03481 0.984087 11.5387 26.9117 0 0 0 -0.482516 0.524283 0.448829 -9.6054 
2700 10 0.96947 2.69344 12.37 29.6868 0 0 0 0 0 0 -9.77321 
3056 9 -0.571062 0.525019 14.5581 26.9668 0 0 0 4.45384 -0.864785 -0.913424 -7.2646 
3062 9 -0.620737 2.19683 14.4732 29.8338 0 0 0 0 0 0 -7.67193 
2752 10 0.945593 2.44056 14.7489 27.626 0 0 0 -1.92509 -0.591909 -0.111879 -9.59253 
2453 7 -0.574858 0.551009 12.052 24.3117 0 0 0 -3.34793 0.243538 -1.78355 -7.36385 
2979 9 -0.588248 3.21145 12.9253 33.1985 0 0 0 0 0 0 -6.351 
2755 9 -0.603147 0.962265 12.9685 31.4267 0 0 0 0 0 0 -6.91816 
3083 10 0.920925 2.04302 14.2828 32.4858 0 0 0 0 0 0 -9.21236 
3194 9 -0.514872 0.331065 14.1552 33.6452 0 0 0 0 0 0 -5.93505 
3234 10 0.985261 2.81311 11.0813 32.5951 0 0 0 0 0 0 -9.5015 
1794 5 -0.498186 0.0642287 16.4844 -5.53735 0 0 0 0 0 0 -6.00087 
1660 5 -0.567816 2.53455 15.5449 -7.05451 0 0 0 0 0 0 -5.3336 
1494 5 -0.515826 1.24896 17.7169 -8.24278 0 0 0 0 0 0 -4.67265 
1541 6 0.890831 0.929314 15.889 -8.1644 0 0 0 0 0 0 -10.3598 
1868 6 0.967753 3.58081 17.2759 -7.26231 0 0 0 0 0 0 -11.9065 
1429 5 -0.608588 2.46957 18.21 -5.89243 0 0 0 0 0 0 -5.49903 
1846 5 -0.55979 2.20801 15.3099 -4.18135 0 0 0 0 0 0 -5.94522 
2035 6 0.958214 1.45269 17.2904 -4.38656 0 0 0 0 0 0 -12.2846 
1513 5 -0.68543 3.22051 17.5623 -3.29097 0 0 0 0 0 0 -5.44732 
1867 6 0.979698 3.46217 15.6052 -2.53379 0 0 0 0 0 0 -12.2486 
1890 5 -0.678722 0.509743 17.8503 -2.34134 0 0 0 0 0 0 -5.47 
1813 5 -0.640027 3.22131 16.8593 -0.757449 0 0 0 0 0 0 -5.48902 
1978 5 -0.593457 0.982666 15.4407 -1.62043 0 0 0 0 0 0 -5.53516 
311 2 0.601024 2.29498 15.0841 -0.0722343 0 0 0 -0.798661 -0.474011 0.232289 -10.6302 
77 1 -0.655784 1.58021 17.3119 2.17423 0 0 0 -5.23569 7.3979 6.40749 -5.90091 
2050 6 0.936294 2.31192 18.3088 -1.79829 0 0 0 0 0 0 -11.8471 
147 2 0.671116 1.78049 18.1614 4.01925 0 0 0 0.447725 0.63333 1.52528 -10.7235 
360 2 0.64748 1.64512 15.4115 2.86759 0 0 0 -1.10335 -1.27883 0.857891 -10.4171 
466 2 0.671551 3.50292 17.6961 1.32409 0 0 0 -2.65045 0.927766 -0.515293 -10.9991 
256 1 -0.617389 3.41804 16.3293 3.80585 0 0 0 2.90449 -3.1155 -1.56106 -6.11557 
653 2 0.607883 0.748688 18.3973 0.526347 0 0 0 -1.95886 1.50011 -0.919489 -10.6388 
609 1 -0.663188 1.75073 15.2248 6.05077 0 0 0 -6.81536 -4.01458 -6.2987 -6.46008 
243 2 0.678921 3.25009 16.6353 6.3404 0 0 0 -0.424616 -1.32868 0.324284 -10.7501 
637 1 -0.594091 0.418088 18.1305 5.74309 0 0 0 -2.70961 -3.46437 -4.27555 -6.73987 
837 4 0.82819 1.15022 15.4916 8.10834 0 0 0 -1.22345 -0.231367 -0.979866 -10.6138 
790 3 -0.607926 2.55175 16.4732 10.5981 0 0 0 4.74721 1.16574 2.82068 -6.81424 
588 1 -0.610653 1.74225 17.4508 8.10895 1 0 0 5.40791 -0.231165 6.74766 -6.64809 
1268 4 0.905211 1.78234 18.1884 9.92228 0 0 0 -0.360735 1.87089 0.636874 -10.666 
499 2 0.682677 0.00544943 15.8085 5.36602 0 0 0 0.144221 -1.06621 0.796059 -10.6704 
1346 4 0.985382 0.815058 16.5766 13.2155 0 0 0 0.765891 -0.319043 0.942547 -10.1473 
725 3 -0.674016 0.595106 18.0698 11.8466 0 0 0 0.0943854 1.49054 2.70384 -7.11295 
1275 3 -0.65081 1.26252 16.6546 15.3733 0 0 0 1.57038 7.90056 -1.35019 -7.3416 
906 3 -0.589806 3.42328 15.3139 12.7897 0 0 0 3.63828 1.14596 -5.16842 -6.48347 
1034 3 -0.641419 2.78268 17.8793 13.3382 0 0 0 0.513971 -1.18769 0.530604 -7.43051 
2212 8 1.04495 3.06494 17.649 15.2886 0 0 0 -0.451841 1.60785 -0.821684 -9.45915 
2271 8 1.00153 1.72062 14.9717 16.2583 0 0 0 -0.756823 1.58183 -2.26887 -9.64808 
1142 3 -0.629801 3.54813 15.3542 15.5328 0 0 0 -7.35054 2.09599 -8.29096 -7.40508 
759 3 -0.514701 2.63737 18.4473 17.0516 0 0 0 2.28785 4.59164 -3.61675 -6.9376 
2614 7 -0.615464 3.05645 17.5459 23.0297 0 0 0 -3.65462 -2.05853 -3.22018 -7.62653 
2509 8 1.02539 1.85437 17.5999 18.7636 0 0 0 -0.661781 -0.39736 -1.04842 -9.36866 
2529 7 -0.585598 1.32164 15.5519 23.141 0 0 0 6.80984 -0.822294 -0.486582 -7.46699 
2201 8 0.995924 3.1603 15.7313 22.3317 0 0 0 -0.45565 0.743839 0.810464 -9.51165 
1109 3 -0.616004 2.10452 15.7355 18.1066 0 0 0 2.19359 5.68381 8.65947 -7.39041 
2420 7 -0.462525 1.31582 17.8884 20.8035 0 0 0 -1.1669 -2.12072 0.0390676 -7.12611 
1186 3 -0.548575 1.07916 15.2004 20.6113 0 0 0 -4.29503 3.328 -4.65869 -7.01223 
2566 8 1.01724 1.60171 18.0162 24.3631 0 0 0 0.323401 1.03877 1.18686 -9.46143 
915 3 -0.63746 0.058591 17.6899 17.8347 0 0 0 1.93005 0.176933 8.29429 -7.39686 
3096 9 -0.498899 2.97357 15.4054 25.7444 0 0 0 -0.927419 3.74286 2.15911 -7.40663 
2645 9 -0.597462 1.60685 16.9446 28.0215 0 0 0 2.45578 -2.02717 0.838733 -7.2886 
2710 9 -0.519489 0.343545 17.0028 25.4996 0 0 0 0.0248001 0.10742 2.35429 -7.17703 
2729 9 -0.652995 2.71346 17.4611 30.2958 0 0 0 0 0 0 -6.8769 
2663 9 -0.616145 2.77919 18.1711 25.8525 0 0 0 1.93256 -3.08507 0.493828 -7.46505 
3251 10 1.00835 1.06765 16.6383 29.982 0 0 0 0 0 0 -9.8981 
2779 10 1.02118 3.51579 17.7724 28.3458 0 0 0 0 0 0 -9.94388 
3029 9 -0.51478 3.45202 15.5993 32.242 0 0 0 0 0 0 -6.48835 
3106 9 -0.627717 0.521885 16.2526 31.8065 0 0 0 0 0 0 -7.37595 
3158 10 0.817217 0.316105 18.1843 32.4367 1 0 0 0 0 0 -8.64316 
3266 10 0.894235 3.66555 18.3836 31.6653 0 0 0 0 0 0 -9.21742 
1972 6 1.03517 0.888745 19.1899 -7.0092 0 0 0 0 0 0 -12.0324 
1967 5 -0.588343 2.07188 20.7996 -6.40046 0 0 0 0 0 0 -5.60683 
1979 5 -0.552092 0.529367 19.2763 -4.62812 0 0 0 0 0 0 -5.7542 
1811 5 -0.278164 0.697305 20.3536 -8.59578 0 0 0 0 0 0 -3.72191 
1447 5 -0.444799 3.60403 18.9232 -8.3861 0 0 0 0 0 0 -4.57729 
1658 6 0.982523 2.04602 20.7147 -4.37171 0 0 0 0 0 0 -12.2426 
1619 5 -0.673344 1.99865 20.1114 -2.38092 0 0 0 0 0 0 -5.51117 
103 1 -0.56437 1.48812 20.0754 3.29887 0 0 0 4.32395 -0.579161 2.19559 -6.23198 
1918 6 1.05083 2.04875 21.6325 -1.14409 0 0 0 0 0 0 -12.5246 
1435 5 -0.633096 0.0227974 21.8118 -1.77234 0 0 0 0 0 0 -5.67076 
208 1 -0.615699 2.00189 21.7145 0.818467 0 0 0 0.0580606 -2.83999 4.69908 -5.59267 
260 1 -0.585954 2.76987 19.2859 0.132929 0 0 0 -4.33751 -6.51638 -2.06154 -5.87324 
407 2 0.673506 3.39139 20.7871 3.87048 0 0 0 2.73834 -1.0435 0.19875 -10.5945 
280 2 0.688675 0.334153 21.3463 1.89809 0 0 0 -1.34662 -0.350502 0.486072 -11.1038 
263 2 0.731425 1.68684 19.531 6.81847 1 0 0 0.529192 0.794613 1.60012 -10.8948 
1396 4 0.863312 0.571064 21.564 9.14374 0 0 0 -0.716351 -1.99271 -1.82893 -10.4353 
532 1 -0.598158 0.993936 21.1998 5.76677 0 0 0 4.5461 -3.00734 -4.97731 -6.23284 
879 4 0.844723 3.47217 20.7351 9.74165 0 0 0 -0.966085 0.308 -1.06504 -10.2983 
834 3 -0.615078 3.20278 20.4938 7.82893 0 0 0 -4.20206 3.36821 -8.292 -6.71258 
1263 3 -0.6002 1.46061 20.1343 10.5047 0 0 0 2.57767 1.41883 1.50969 -6.90132 
131 1 -0.666062 3.1932 18.5964 5.61656 0 0 0 3.41933 2.59998 -0.70124 -6.59186 
590 1 -0.599829 0.0874453 19.7304 8.19939 0 0 0 -6.71156 1.24774 3.26785 -6.51169 
786 3 -0.541618 3.11535 21.1176 16.5847 0 0 0 2.60835 -2.43754 0.212129 -6.7584 
1283 4 1.01814 3.28578 21.6966 14.7447 0 0 0 -2.04005 -0.194214 0.460948 -9.8071 
912 3 -0.656541 2.80852 21.1241 12.7732 0 0 0 0.71195 7.50324 -2.28588 -7.29407 
1328 3 -0.507783 1.57552 19.6273 14.8527 1 0 0 0.843457 -3.80464 -2.70417 -7.04274 
954 4 1.00608 1.69238 19.5902 12.6505 0 0 0 -1.2929 0.815698 -0.503553 -10.1334 
1214 4 1.01673 1.27603 20.0124 16.8971 0 0 0 -1.44018 1.13444 -2.16135 -9.61925 
2222 7 -0.504963 0.333737 21.9832 17.3172 1 0 0 0.872011 3.13757 -2.9195 -6.96337 
749 3 -0.585811 0.15434 20.8544 12.9871 1 0 0 -2.95367 4.25391 -1.03816 -7.04075 
2494 7 -0.633075 0.979159 21.2807 20.9594 0 0 0 -0.512313 2.49048 4.1142 -7.56314 
2390 8 1.00062 2.90289 21.4517 23.3208 0 0 0 3.63162 0.435161 0.489221 -9.55474 
2474 7 -0.602386 3.05073 19.9374 21.7498 0 0 0 -0.531847 -7.16399 6.44087 -7.15896 
2305 8 0.991739 0.441317 19.5768 21.8142 0 0 0 1.15818 0.34036 -1.97394 -9.6346 
2182 8 1.01983 2.87309 20.4129 19.8781 0 0 0 -0.810331 -0.904181 1.08475 -9.58138 
2208 7 -0.612948 1.65603 19.9815 23.856 0 0 0 2.6231 -0.314903 1.34958 -7.27171 
815 3 -0.622734 1.14476 19.7705 18.8655 0 0 0 1.30177 7.15829 -2.23707 -7.29739 
2187 7 -0.446837 3.67706 18.5745 19.5294 0 0 0 0.58865 2.60744 2.81606 -6.99416 
2636 8 0.957066 0.0169495 21.6319 19.2568 1 0 0 -1.45267 -0.395595 -0.0835555 -9.65404 
3175 9 -0.659061 3.30254 21.152 30.7938 0 0 0 0 0 0 -7.70385 
2874 10 0.913687 1.4473 19.8681 30.1297 0 0 0 0 0 0 -9.66398 
2706 9 -0.563792 0.91819 21.6765 29.8939 0 0 0 0 0 0 -7.02943 
2799 10 1.02184 3.23667 20.1527 26.1293 0 0 0 -0.692048 -2.01403 -0.445606 -9.6142 
3027 9 -0.634386 1.23783 20.3821 26.3596 0 0 0 -4.08045 -2.87018 6.69314 -7.03935 
3183 9 -0.620406 2.37414 19.5074 28.5011 0 0 0 -4.07498 0.861316 -6.38603 -7.36293 
2754 9 -0.485226 3.08566 22.03 25.4324 0 0 0 3.94516 0.582627 -2.25172 -6.87989 
3316 10 0.992444 0.691369 22.0515 27.7052 0 0 0 0.434663 1.26372 0.150124 -9.60551 
3188 10 0.947813 0.605342 18.7487 27.2965 0 0 0 0.382297 0.581899 -0.432693 -9.66829 
3195 9 -0.617846 0.0548548 18.5598 30.2141 0 0 0 0 0 0 -7.46363 
3164 9 -0.569788 2.63705 22.1273 28.0713 0 0 0 0.265759 -0.0296537 1.85064 -7.15631 
2341 8 1.04716 0.0657452 21.1552 24.8009 1 0 0 -0.913122 2.2059 0.526539 -9.67793 
2835 9 -0.673889 1.94761 19.1418 32.1451 0 0 0 0 0 0 -7.17337 
3134 10 0.926351 2.38689 21.2654 32.5699 0 0 0 0 0 0 -9.02795 
2651 9 -0.590856 0.501425 21.4662 32.7366 0 0 0 0 0 0 -6.77077 
1948 5 -0.590955 1.19944 24.6777 -5.78399 0 0 0 0 0 0 -5.5974 
2100 6 1.00252 0.55738 22.7877 -6.47164 0 0 0 0 0 0 -11.9764 
1538 5 -0.456234 2.10322 23.0145 -7.73334 0 0 0 0 0 0 -4.69141 
1646 5 -0.52049 2.99274 25.5395 -7.62704 0 0 0 0 0 0 -4.85153 
1616 5 -0.602424 3.58446 23.3733 -5.14788 0 0 0 0 0 0 -5.45292 
1490 5 -0.5585 1.13689 22.4582 -4.34833 0 0 0 0 0 0 -5.77772 
1849 6 1.05924 2.267 24.1235 -3.93767 0 0 0 0 0 0 -12.5636 
2102 5 -0.607153 1.02984 25.5084 -3.3119 0 0 0 0 0 0 -5.51819 
2006 5 -0.627036 0.871821 25.1529 -0.832466 0 0 0 0 0 0 -4.96524 
251 2 0.717926 2.75306 23.1482 1.98694 0 0 0 0.205086 -1.60928 0.726829 -10.9077 
1987 6 1.00575 2.91823 25.0222 -1.21695 0 0 0 0 0 0 -12.308 
1959 5 -0.586603 2.29157 23.2752 -2.00933 0 0 0 0 0 0 -5.29264 
167 1 -0.625016 2.72141 24.7976 1.12859 0 0 0 -1.20606 7.03113 2.84786 -5.76561 
363 1 -0.596836 1.65135 23.0173 3.67206 0 0 0 -1.54307 8.59957 0.803421 -6.14016 
478 2 0.687709 2.68092 25.7493 3.82416 0 0 0 0.219891 0.342805 -0.404428 -11.034 
126 2 0.738953 0.566476 25.7082 0.967726 0 0 0 -0.704343 0.303003 -0.800301 -11.7165 
432 1 -0.641841 3.24641 24.4622 5.37395 0 0 0 0.978709 -7.04012 -3.05336 -6.161 
942 3 -0.615754 1.72782 22.8213 10.4361 0 0 0 -3.18569 -5.02535 -3.27365 -6.97497 
1376 3 -0.502355 2.07635 25.6437 10.5949 0 0 0 2.87839 3.34448 0.760084 -6.93397 
944 4 0.90263 2.7171 23.9545 8.97514 0 0 0 2.03151 -0.0421069 1.02618 -10.8052 
439 1 -0.635423 2.77251 25.7073 7.94163 0 0 0 -1.11986 -3.73396 1.83871 -6.32351 
1018 4 0.898399 1.09284 25.2975 6.97626 0 0 0 -0.773332 0.184202 1.59349 -10.8321 
17 1 -0.602528 1.59636 22.9143 7.66493 0 0 0 -1.1909 4.96413 1.20671 -6.38827 
603 2 0.722491 2.29582 22.6689 5.71405 0 0 0 -0.212491 -2.40911 -0.438767 -10.9719 
1320 3 -0.671925 1.89658 25.3862 15.666 0 0 0 1.05655 -4.90865 1.29311 -7.61459 
1244 3 -0.599548 1.78851 24.2833 13.0559 0 0 0 0.302621 2.4828 -0.893131 -7.16275 
1145 4 0.949863 2.97267 22.9428 12.0108 0 0 0 -1.34842 1.64354 -0.157138 -10.1506 
973 4 0.987939 0.815755 25.7332 13.8583 0 0 0 0.4176 0.207421 -0.322247 -9.69023 
1398 3 -0.608037 1.59022 22.6036 15.1424 0 0 0 -1.49705 -0.0527236 1.40025 -7.25205 
2422 8 1.05012 1.53258 23.7653 16.8073 0 0 0 1.38067 -0.88803 -0.504755 -9.56678 
1337 4 0.996727 0.289961 22.7112 13.6849 1 0 0 -0.531023 -0.311647 -1.47231 -9.75534 
843 4 0.938104 3.56928 25.1034 14.6117 0 0 0 -1.62572 -0.572073 1.40456 -9.91644 
2862 9 -0.530413 1.32315 25.2659 24.2034 0 0 0 -1.11064 -1.86321 -4.82883 -6.90793 
1324 3 -0.590581 2.5041 24.6873 18.2405 0 0 0 0.882844 -0.031915 2.23153 -7.42399 
2512 8 0.999232 2.46151 23.7344 19.9674 0 0 0 0.974074 -1.47687 0.559462 -9.74077 
2586 8 1.01106 2.74954 24.8775 22.8944 0 0 0 1.55163 -1.09759 1.81857 -9.41436 
2144 7 -0.595962 3.19105 22.9028 21.702 0 0 0 -2.90435 0.417522 -5.6845 -7.64626 
2427 7 -0.530263 1.02987 22.5255 23.5925 0 0 0 -2.74281 3.63824 3.05231 -7.28769 
2258 7 -0.608597 1.10658 24.5254 21.671 0 0 0 -2.80852 -2.02204 1.3717 -7.20811 
2199 7 -0.59535 3.23248 25.601 20.7729 0 0 0 3.41573 -5.51222 0.655041 -7.1905 
2605 7 -0.58088 0.111105 23.606 19.4727 0 0 0 6.15616 0.4949 1.11733 -7.19187 
1255 3 -0.641427 2.6157 22.1372 18.8345 0 0 0 2.09889 -0.000264448 4.76133 -7.13483 
2739 9 -0.631421 0.00611494 22.7329 25.9896 1 0 0 -0.984899 1.8048 6.94159 -7.46569 
3065 10 0.95519 2.23665 23.2006 30.1036 0 0 0 0 0 0 -9.74152 
3294 9 -0.532725 2.40213 24.6368 27.7811 0 0 0 0 0 0 -7.35866 
2938 10 0.93437 1.08305 24.6404 26.0696 0 0 0 0.69827 -0.794541 0.19818 -9.21935 
3318 9 -0.634676 0.918242 24.5528 30.415 0 0 0 0 0 0 -7.44601 
3279 9 -0.556874 3.54789 24.4508 25.3686 0 0 0 2.32416 0.875891 3.53346 -7.18479 
3222 9 -0.594915 2.39475 23.387 32.4246 0 0 0 0 0 0 -6.98015 
3257 10 0.905297 0.341527 23.9078 32.3636 1 0 0 0 0 0 -9.36594 
1464 6 0.985096 1.82239 28.7853 -5.30082 0 0 0 0 0 0 -12.2637 
2080 5 -0.517162 2.03753 27.8651 -6.97495 0 0 0 0 0 0 -5.26838 
1474 5 -0.552987 0.256376 27.2198 -5.26244 0 0 0 0 0 0 -5.69302 
1722 6 0.947972 1.08322 26.0778 -7.20737 0 0 0 0 0 0 -11.0039 
2078 5 -0.521779 3.5402 26.4367 -5.07638 0 0 0 0 0 0 -5.68715 
2024 5 -0.606927 2.03703 28.1565 -3.27404 0 0 0 0 0 0 -5.89855 
1434 5 -0.596674 0.52773 27.7096 -0.180191 0 0 0 0 0 0 -5.8371 
531 2 0.64937 1.72517 28.6465 3.17428 0 -1 0 -2.82228 -0.644085 -2.9428 -10.8094 
2028 5 -0.667233 2.9896 26.9159 -0.88299 0 0 0 0 0 0 -5.37662 
1677 6 1.01892 0.654743 27.122 -2.18933 0 0 0 0 0 0 -12.7508 
1518 6 0.939094 2.43385 28.7905 -0.143219 0 0 0 0 0 0 -12.1162 
656 1 -0.719291 3.17627 28.3468 1.70853 0 -1 0 -6.37292 7.52876 2.16816 -5.92959 
5 1 -0.646873 0.838567 25.9722 2.89594 0 0 0 -3.45526 0.663623 4.73299 -6.2448 
497 2 0.737734 3.06495 27.7309 8.15468 0 0 0 0.517104 0.504623 1.86982 -10.9613 
509 2 0.674681 0.611136 27.9382 5.88068 0 0 0 -0.806073 -0.466917 0.777835 -10.6385 
689 1 -0.640164 2.2702 27.4353 4.95453 0 0 0 -6.06648 3.91053 -0.216623 -6.28092 
1044 3 -0.660165 2.25507 28.3601 9.89309 0 -1 0 1.04191 3.64111 -1.61537 -6.89038 
344 1 -0.658709 0.780518 27.511 7.77851 0 -1 0 0.0121812 -3.03322 5.70965 -6.34594 