ITEM: TIMESTEP
1190000
ITEM: NUMBER OF ATOMS
3344
ITEM: BOX BOUNDS pp pp ff
0.0000000000000000e+00 2.9577472229403913e+01
0.0000000000000000e+00 2.9543361372085563e+01
-8.8921683279491504e+00 4.4289169250706017e+01
ITEM: ATOMS id type q x y z ix iy iz vx vy vz c_eng 
1802 6 0.970113 1.7243 2.49981 -5.82381 0 0 0 0 0 0 -12.0132 
1748 5 -0.552892 2.14279 1.0196 -7.10683 0 0 0 0 0 0 -5.44099 
2036 6 0.847955 0.0809691 0.9624 -7.73073 0 0 0 0 0 0 -10.1144 
1735 5 -0.638398 0.00588334 2.78954 -7.00765 0 0 0 0 0 0 -5.70872 
1835 5 -0.589017 1.8621 1.03873 -4.37975 0 0 0 0 0 0 -5.20321 
1553 6 1.04692 0.843231 0.868851 -2.65107 0 0 0 0 0 0 -12.5182 
1851 5 -0.551167 2.87027 2.14928 -2.36357 0 0 0 0 0 0 -4.97255 
1662 5 -0.693162 1.36498 0.726933 -0.805768 0 0 0 0 0 0 -5.22478 
1877 5 -0.497051 1.02744 3.48036 -1.02956 0 0 0 0 0 0 -5.69592 
1879 6 0.952074 2.73535 2.50359 -0.383048 0 0 0 0 0 0 -12.2303 
111 1 -0.687627 0.469872 2.50206 2.21105 1 0 0 -7.53019 3.97244 3.04881 -6.17532 
565 2 0.619579 0.222108 1.16772 0.723252 1 0 0 1.48779 -2.26344 0.361936 -10.4496 
507 2 0.667969 2.32521 2.42342 2.77774 0 0 0 0.52027 -0.0806611 -1.44915 -10.903 
248 1 -0.631499 3.16768 0.673954 4.02533 0 0 0 -2.66885 -4.34777 -4.47018 -6.35889 
122 1 -0.60985 1.49975 3.29473 5.19948 0 0 0 -2.75025 -1.77068 -6.24844 -6.10125 
430 1 -0.565838 1.5567 1.26883 10.0455 0 0 0 -1.26464 -3.64937 -0.337699 -6.76524 
367 2 0.726763 1.42365 3.32778 7.41781 0 0 0 2.12078 0.428383 0.465644 -10.7235 
484 1 -0.631623 0.71148 1.36202 7.20305 1 0 0 2.21707 -7.94026 4.68208 -6.03972 
567 2 0.704763 1.92791 1.14979 5.59351 0 0 0 0.77209 -1.82456 -1.27475 -10.9762 
1422 4 0.971735 3.14912 2.898 10.575 0 0 0 0.414392 -1.12662 -2.00639 -10.5224 
88 1 -0.654557 0.140473 0.123641 4.85733 0 1 0 -4.46479 4.64771 -2.20093 -6.18418 
928 4 0.962347 3.56427 0.0750681 10.4684 0 0 0 -3.09993 -1.39179 -0.120028 -10.675 
1098 4 0.952356 1.22493 1.28969 12.7241 0 0 0 -2.72733 -0.897909 -0.0792895 -10.006 
1143 3 -0.628731 2.55385 3.36504 15.5858 0 0 0 -3.56002 6.75338 8.00605 -7.65675 
1117 4 0.958408 3.51142 3.54863 13.7343 0 0 0 0.713412 0.892241 -0.363608 -9.97286 
1121 3 -0.552804 1.10768 0.811053 14.8426 0 0 0 -2.84091 1.43253 0.0417294 -7.39983 
1271 3 -0.6253 2.02908 3.16031 12.2669 0 0 0 -2.78549 0.22066 1.60878 -7.30059 
1175 4 0.968446 2.82239 1.05622 15.7892 0 0 0 -0.538366 -0.934927 1.93668 -9.65506 
1339 3 -0.594002 2.87519 0.453537 12.2812 0 0 0 7.65101 2.78692 -1.99328 -6.81348 
1173 3 -0.553112 1.13153 3.05954 20.5194 0 0 0 -2.16141 -5.45751 -0.13734 -7.45635 
2397 7 -0.575395 0.371349 0.536773 20.8987 1 0 0 2.38844 3.27438 0.181886 -6.72432 
2296 7 -0.571512 0.93424 2.04837 22.9948 0 0 0 -1.7413 4.70416 -7.72245 -6.86454 
2507 7 -0.638673 3.33801 0.984958 22.8613 0 0 0 1.57142 -3.98018 -1.32863 -7.35411 
2398 8 1.05034 2.08812 1.2235 21.3364 0 1 0 -0.979482 1.1994 -0.844618 -9.55499 
2500 8 1.01919 0.817387 2.67622 18.5219 1 0 0 -1.35662 0.638146 -0.792712 -9.66434 
1147 3 -0.555724 2.30668 1.6884 17.7222 0 0 0 -0.47102 6.38653 -0.916957 -7.18394 
3018 10 1.02944 1.26617 1.67168 27.5937 0 0 0 -0.00919901 -0.0316835 0.777919 -9.6519 
3067 9 -0.678961 3.0083 1.46127 30.3488 0 0 0 0 0 0 -7.01799 
3041 9 -0.518919 1.48408 3.22364 28.6783 0 0 0 0 0 0 -6.69476 
3191 9 -0.614215 1.96075 3.13441 25.7139 0 0 0 0.600457 -0.151545 7.6142 -7.74253 
2951 9 -0.624425 0.470425 1.01832 25.8991 0 0 0 2.02685 -5.13315 -1.02921 -7.36787 
3143 9 -0.473967 0.431448 0.958703 29.5551 1 0 0 0 0 0 -6.58216 
3095 10 0.983688 1.6276 2.8984 30.8277 0 0 0 0 0 0 -9.83857 
2814 9 -0.637768 3.60081 2.13027 27.5527 0 0 0 0.274233 3.40985 2.30214 -7.52657 
2309 8 1.02054 1.89025 1.37798 24.6235 0 0 0 0.277404 0.574211 0.181853 -9.33499 
3190 9 -0.491559 0.786675 1.7727 32.0981 1 0 0 0 0 0 -6.10504 
1684 6 0.747503 0.445229 4.47767 -7.87932 0 0 0 0 0 0 -9.59415 
1477 6 0.980452 3.46016 7.11675 -5.47067 0 0 0 0 0 0 -12.2478 
1857 5 -0.515784 2.0317 5.78473 -5.97954 0 0 0 0 0 0 -5.32793 
1590 6 1.07095 0.508557 5.42352 -4.74455 0 0 0 0 0 0 -12.1505 
1975 5 -0.439245 2.43595 3.78674 -7.65315 0 0 0 0 0 0 -5.00159 
1821 6 0.992836 3.36907 4.02753 -3.5146 0 0 0 0 0 0 -12.3123 
1825 5 -0.555799 1.50847 3.72043 -4.38085 0 0 0 0 0 0 -5.76068 
1909 5 -0.636997 0.0621039 7.24131 -4.24721 0 0 0 0 0 0 -5.43728 
1818 5 -0.472815 2.15409 5.84045 -2.82165 0 0 0 0 0 0 -5.64069 
339 1 -0.617657 2.56533 3.99695 1.26965 0 0 0 -2.40978 -2.63109 -0.494935 -5.62209 
1896 6 0.950857 3.0567 5.78662 -0.958883 0 0 0 0 0 0 -11.7796 
1641 5 -0.659077 1.11626 5.99452 -0.226154 0 0 0 0 0 0 -5.66478 
1664 6 0.997937 0.000929243 6.49362 -1.72773 0 0 0 0 0 0 -12.4743 
400 2 0.653011 2.99357 5.95208 2.20681 0 0 0 0.595552 -0.701569 0.338897 -10.6108 
428 2 0.7043 0.446419 4.41102 0.778805 0 0 0 1.01834 0.706649 0.92693 -11.5131 
579 1 -0.602065 1.28531 5.6672 3.42979 0 0 0 0.754222 -3.12659 -5.52185 -6.2569 
114 2 0.717811 0.0778611 3.84841 3.98028 0 0 0 0.255551 -0.711673 -1.09617 -11.0789 
202 2 0.699534 0.269931 5.90924 6.5404 1 0 0 0.281157 0.247868 -0.891357 -10.7239 
142 1 -0.659365 2.43898 5.34726 6.75986 0 0 0 -0.504171 1.88834 2.601 -6.54737 
980 4 0.882461 1.60444 5.53327 9.55657 0 0 0 -1.24888 -0.668666 0.312596 -10.6102 
55 1 -0.685206 2.43865 3.8869 8.99631 0 0 0 -0.43045 -3.09664 6.82163 -6.72528 
310 2 0.732486 3.12238 4.72965 4.94929 0 0 0 1.27258 -1.17181 -0.675299 -11.2062 
580 1 -0.62645 3.53207 6.80748 4.55745 0 0 0 9.27434 3.50467 -1.71482 -6.32602 
2393 8 0.99438 0.573574 4.07977 15.6859 0 0 0 1.26852 -1.31631 0.178724 -9.82782 
891 3 -0.519418 0.724994 6.23829 16.4221 0 0 0 -0.255442 -3.39193 6.02051 -6.67398 
37 1 -0.591659 1.75899 5.94174 11.431 0 0 0 -6.46749 3.12298 4.74206 -6.83023 
1114 3 -0.592441 1.40913 5.41122 14.1762 0 0 0 4.31046 6.87992 0.319503 -6.98074 
1192 4 1.03181 2.80981 6.70822 14.908 0 0 0 0.272255 -2.5206 -0.0917038 -9.93805 
762 3 -0.624369 3.33522 5.85809 16.7017 0 0 0 -1.90414 -2.77618 3.99676 -7.28208 
886 4 1.04319 0.358624 4.56604 12.432 0 0 0 1.45618 0.566012 -1.2468 -10.2596 
2304 8 1.04142 0.479176 4.78643 21.5687 1 0 0 1.46801 -2.14763 0.215421 -9.3253 
2521 7 -0.535389 2.2767 5.69593 20.5921 0 0 0 -2.19478 -5.23714 -5.50637 -7.2132 
2202 7 -0.509513 1.93397 4.52822 23.0515 0 0 0 2.17539 3.29145 1.17133 -7.46632 
937 3 -0.656588 2.52456 4.11468 18.388 0 0 0 0.140596 5.17491 2.57639 -6.95802 
2551 8 1.02726 1.72471 5.9463 18.2711 0 0 0 -0.0726345 0.679144 0.513868 -10.0098 
2618 8 1.01227 3.37823 4.12314 20.2183 0 0 0 -0.958725 -0.901947 -0.373669 -9.67938 
2151 7 -0.590966 0.0644884 4.45676 18.1657 1 0 0 -4.04233 -0.18407 6.14678 -7.10956 
2900 10 0.997357 0.933205 4.61218 24.8772 0 0 0 0.465692 -0.491059 -1.02248 -9.38092 
3034 9 -0.623372 2.77226 4.61379 30.302 0 0 0 0 0 0 -7.05234 
3344 9 -0.504647 3.54458 5.4786 25.4233 0 0 0 -2.04049 -0.517897 2.88796 -7.08887 
3073 9 -0.515813 1.67851 5.46291 27.4201 0 0 0 -5.16127 6.37624 -1.91432 -6.90291 
2693 10 0.983379 3.08829 6.32393 28.7029 0 0 0 -0.212321 -0.0402155 0.913482 -9.82384 
3125 9 -0.602624 0.142198 6.06181 29.6391 0 0 0 0 0 0 -7.57329 
3184 9 -0.499063 1.14092 6.6582 24.8088 1 0 0 0.972902 4.3919 1.58727 -7.18217 
3146 10 0.982344 0.666484 7.21905 26.7083 0 0 0 0.00122006 -0.506777 0.5578 -9.46639 
3093 9 -0.582663 0.670761 4.44183 31.9083 0 0 0 0 0 0 -6.63735 
3136 9 -0.596674 0.78003 7.25771 32.4875 0 0 0 0 0 0 -6.50381 
2857 9 -0.539482 3.6098 6.05916 32.4556 0 0 0 0 0 0 -6.36893 
2880 10 0.94211 1.54494 6.02619 31.2853 0 0 0 0 0 0 -9.75384 
1668 5 -0.477022 1.64048 10.6708 -7.73594 0 0 0 0 0 0 -4.66436 
1710 6 0.979582 3.38153 9.88793 -7.55904 0 0 0 0 0 0 -11.3121 
1995 5 -0.560639 1.79146 8.27353 -5.98123 0 0 0 0 0 0 -5.37483 
1930 6 0.87204 0.671803 7.74258 -7.51036 0 0 0 0 0 0 -10.9722 
1697 5 -0.557928 3.30988 10.3922 -5.66731 0 0 0 0 0 0 -5.17786 
1842 5 -0.400947 2.53479 8.15547 -8.52032 0 0 0 0 0 0 -4.38151 
2066 6 1.0258 1.2891 8.78837 -4.10193 0 0 0 0 0 0 -12.3128 
1595 5 -0.544837 3.06511 8.26468 -3.57222 0 0 0 0 0 0 -5.37824 
2025 5 -0.587889 1.63303 10.6228 -3.32851 0 0 0 0 0 0 -5.49647 
1628 5 -0.657084 3.03662 10.4037 -0.960219 0 0 0 0 0 0 -5.71732 
1920 5 -0.578642 0.9029 8.32336 -2.0179 0 0 0 0 0 0 -5.84295 
1504 6 0.937474 1.05039 10.079 -1.02812 0 0 0 0 0 0 -11.8623 
380 2 0.672894 0.593397 7.87942 0.865619 0 0 0 -2.17666 -0.697803 -1.05015 -10.9443 
423 1 -0.653721 0.663053 9.95774 0.929818 0 0 0 -3.4374 -1.25679 -3.48974 -5.9588 
137 2 0.669317 1.40205 7.55836 4.01742 0 0 0 -1.21968 -2.16601 1.87061 -10.5693 
663 1 -0.587216 2.50542 7.87723 1.35413 0 0 0 -0.5715 -1.90062 -2.79013 -6.13237 
530 2 0.691819 3.40727 9.78239 0.99767 0 0 0 -0.296888 2.04736 0.0281326 -11.4323 
345 1 -0.63241 1.92296 9.60929 3.84869 0 0 0 -1.98494 -4.11076 4.55476 -6.39328 
213 2 0.650811 0.0570661 10.0745 2.90608 0 0 0 1.05163 0.789521 1.16671 -10.5199 
581 2 0.664685 2.90883 7.41846 6.73574 0 0 0 0.139812 -0.873683 -0.248357 -10.6532 
1085 3 -0.642046 0.782606 9.76176 8.04157 0 0 0 2.02747 0.371854 2.29357 -6.74315 
100 1 -0.657536 0.906642 7.86157 5.98274 0 0 0 5.47175 -1.0028 -2.85211 -6.70965 
614 2 0.720483 1.42265 10.0332 6.03316 0 0 0 0.288434 2.25955 -0.327189 -10.9346 
1006 4 0.907822 2.52578 9.742 9.07248 0 0 0 -0.273821 -0.874261 -0.673187 -10.9274 
480 1 -0.664006 2.41125 7.526 8.81038 0 0 0 3.73479 -0.587566 -7.3492 -6.91254 
1138 3 -0.649061 2.19905 9.55773 10.9855 0 0 0 -1.61384 4.2465 4.55552 -6.95875 
474 1 -0.582716 2.91155 7.77466 13.2794 0 0 0 10.5842 2.53003 5.74965 -6.78088 
993 3 -0.5935 2.19894 8.3063 15.8051 0 0 0 -0.500085 1.87167 -1.45495 -7.14197 
1115 3 -0.620739 0.62784 10.0747 16.9755 1 0 0 0.933919 -2.27007 -4.03875 -7.32859 
800 4 1.02523 1.03882 9.81013 14.9261 0 0 0 -0.637328 1.47908 0.380154 -10.0398 
1334 3 -0.633642 1.44932 10.8236 13.1371 1 0 0 -1.98519 0.247823 3.5627 -6.76696 
922 4 0.963143 1.63676 7.80826 11.7922 0 0 0 3.24783 -1.90178 -0.907516 -10.2956 
780 4 1.04207 3.10159 10.9237 12.2644 0 0 0 -1.46486 0.145317 -1.22774 -10.3765 
1321 3 -0.404079 2.83218 10.8239 15.513 0 0 0 -1.94737 5.99995 -1.904 -6.69141 
1024 4 0.938116 -0.000554097 10.38 11.5938 1 0 0 -2.19902 -0.757734 1.2336 -10.375 
1291 3 -0.589083 0.308135 8.40214 13.5389 0 0 0 -1.88321 -1.07661 0.933793 -7.21441 
2549 8 1.03272 2.6664 8.39428 22.9484 0 0 0 -1.36186 1.61784 -1.62878 -9.0869 
1216 3 -0.647124 0.774722 7.78236 18.4372 0 0 0 -5.11664 -2.3221 -4.33101 -7.30639 
2205 7 -0.591286 2.67961 8.78494 20.879 0 0 0 3.47986 2.89925 5.54969 -7.25654 
2177 7 -0.527611 0.840602 7.46705 22.2353 1 0 0 -8.17523 -1.15025 -3.36577 -6.95352 
2443 7 -0.420067 1.33256 9.81431 23.2428 1 0 0 -2.67783 2.57133 2.35944 -6.36492 
2270 7 -0.572976 0.412116 9.84 19.8497 1 0 0 6.4735 -5.54814 0.129565 -7.1617 
2417 8 1.03244 0.209804 7.91487 20.3796 0 0 0 -0.626716 -0.257905 -1.2633 -9.47463 
2256 8 0.972362 2.10346 10.6822 20.629 0 0 0 0.858646 -2.68828 0.503334 -9.43561 
924 3 -0.628272 2.5718 10.9082 18.6113 0 0 0 2.85903 -0.521704 4.24031 -7.76676 
2306 7 -0.568069 3.39988 10.8436 22.2892 0 0 0 6.05962 1.36982 2.7664 -7.18046 
2178 8 1.00274 2.27776 9.04704 17.7329 0 0 0 -1.6318 -0.0560929 -0.277379 -9.9276 
1210 3 -0.588067 3.22619 7.4071 18.6575 0 0 0 -4.80181 4.10161 1.48216 -6.96508 
3121 9 -0.632847 0.152579 8.92849 30.2329 1 0 0 0 0 0 -7.38531 
3058 9 -0.49692 3.40139 8.33505 24.7947 0 0 0 -3.09196 -2.44253 1.51847 -7.2296 
2913 9 -0.591081 2.97551 10.6544 28.2207 0 0 0 -5.37657 -5.26796 -2.96623 -7.55735 
3005 9 -0.562121 1.97116 10.3186 25.8186 0 0 0 7.57438 -0.803099 -1.284 -7.07303 
3211 9 -0.652803 2.08704 8.05363 27.6711 0 0 0 -4.96973 -4.12871 -1.78483 -7.47737 
2926 10 0.995202 3.45267 9.07582 26.5151 0 0 0 -0.0511805 -0.626746 -0.108433 -9.3618 
3282 10 1.00684 1.92596 9.26308 29.2311 0 0 0 0 0 0 -9.75886 
2811 9 -0.673462 2.55023 7.49671 30.2657 0 0 0 0 0 0 -7.4842 
3241 9 -0.582052 2.0989 10.6532 30.7246 0 0 0 0 0 0 -7.18547 
2884 9 -0.576116 0.0564396 10.0673 27.9011 0 0 0 3.14151 0.406972 0.317537 -7.13209 
2844 9 -0.515311 2.70691 9.0506 32.7021 0 0 0 0 0 0 -6.1274 
2720 10 0.9609 0.586234 9.22811 32.092 0 0 0 0 0 0 -9.86512 
2980 9 -0.557391 0.970871 10.9031 33.3026 0 0 0 0 0 0 -6.31655 
1493 5 -0.589804 2.35292 13.0216 -5.98123 0 0 0 0 0 0 -5.51638 
1511 6 0.956601 1.09778 12.4715 -7.27982 0 0 0 0 0 0 -10.8477 
1536 6 1.01944 3.5591 14.559 -5.53605 0 0 0 0 0 0 -12.4614 
1840 5 -0.658329 0.144973 14.307 -7.28475 0 0 0 0 0 0 -5.34785 
1539 5 -0.586333 0.627335 13.0251 -4.04772 0 0 0 0 0 0 -5.44271 
1484 6 1.06924 2.91174 11.6919 -4.45009 0 0 0 0 0 0 -12.3865 
1939 5 -0.574458 2.99761 12.858 -2.9592 0 0 0 0 0 0 -5.07174 
1437 6 0.997856 0.701201 13.5849 -2.07916 0 0 0 0 0 0 -12.5056 
2018 6 1.02141 3.42633 12.3238 -1.12582 0 0 0 0 0 0 -12.5804 
1764 5 -0.721585 1.5814 13.0058 -0.521059 0 0 0 0 0 0 -5.30993 
586 1 -0.616024 2.12525 13.4729 3.34179 0 0 0 1.76016 -0.982049 0.00399344 -6.08534 
146 2 0.659505 1.13254 12.1378 1.15285 1 0 0 -1.12144 -2.95323 -0.213306 -10.7932 
398 2 0.706689 2.82433 11.5377 3.6306 0 0 0 -1.11502 0.0148202 -0.959697 -10.9092 
697 1 -0.686849 3.06548 11.7157 1.53764 0 0 0 -5.27353 1.63727 -4.26389 -6.07614 
665 2 0.704638 0.296242 12.612 4.36079 1 0 0 -2.87058 0.35051 -3.28717 -10.8923 
807 4 0.908171 1.02831 12.4856 9.24678 0 0 0 0.231596 0.00255694 -1.37565 -10.8013 
218 1 -0.619655 0.390429 13.1867 7.57012 0 0 0 2.67363 2.5375 2.3344 -6.48851 
416 2 0.721401 2.16183 13.343 6.61998 0 0 0 1.44988 -1.61675 -0.75528 -10.8744 
572 1 -0.673529 1.91296 11.759 5.43971 0 0 0 -4.96896 -2.38139 5.39208 -5.888 
690 1 -0.650058 2.81806 11.7221 8.26569 0 0 0 -1.41476 -0.470202 4.33719 -6.68419 
491 1 -0.64221 0.842041 14.5215 10.02 0 0 0 1.06141 0.188877 -4.49676 -6.77125 
39 1 -0.639048 3.22331 14.4646 8.03893 0 0 0 -4.64112 8.27862 -1.22799 -6.90998 
956 3 -0.644523 2.35851 12.405 10.8724 0 0 0 3.37719 0.929514 -1.06096 -6.9012 
733 4 1.00108 0.885422 12.8318 13.7116 0 0 0 -1.49994 -1.44381 0.639104 -9.87721 
789 3 -0.546258 1.27761 13.1001 15.6722 0 0 0 0.0957093 -1.32638 -2.30993 -7.34062 
2408 8 0.96966 1.01382 12.0687 17.4292 0 0 0 -3.39943 -0.186863 1.42903 -9.61225 
905 3 -0.481672 3.12363 12.7318 13.4626 0 0 0 -0.779965 0.066435 6.97876 -6.74568 
832 4 0.930703 2.53467 14.3559 11.3882 0 0 0 -1.23142 1.47014 0.68423 -10.5192 
1136 3 -0.600916 1.10143 14.6547 13.0841 0 0 0 -3.19837 1.30006 -5.89153 -6.97198 
2453 7 -0.575767 0.543519 12.0617 24.2954 0 0 0 3.00784 -4.25884 3.66637 -7.51657 
1060 3 -0.525174 2.42195 12.789 20.7739 0 0 0 1.63015 0.0722234 4.27072 -7.21555 
2260 8 0.951843 2.50902 14.3688 19.4344 0 0 0 1.17649 0.977376 0.392269 -9.58511 
2506 8 0.911958 0.928977 13.294 22.1442 1 0 0 2.38917 0.358741 1.998 -9.33462 
2242 7 -0.609366 2.63928 13.4144 23.6012 0 0 0 -0.670872 0.95238 6.37469 -7.62935 
1274 3 -0.592608 0.487717 13.1581 19.0419 0 0 0 3.97555 0.372099 -2.25342 -7.25198 
2570 8 1.01002 2.44068 11.3799 24.0948 0 0 0 3.08916 0.451898 -0.295349 -9.49408 
1235 3 -0.629186 2.93718 13.4153 17.7735 0 0 0 -5.22939 1.73343 1.79323 -7.37934 
2197 7 -0.455828 0.041728 11.6611 21.5161 1 0 0 -7.95627 -3.94503 -3.33721 -6.92863 
2709 9 -0.625318 0.804109 12.3653 28.7677 0 0 0 -3.24352 -0.205677 -2.30617 -7.53777 
2876 9 -0.595971 2.37268 12.9485 26.3892 0 0 0 3.6388 -4.86386 1.08728 -7.39075 
2757 10 0.986872 1.22403 14.3259 24.9449 0 0 0 -1.73367 -0.330825 -0.111411 -9.30016 
2727 10 1.01498 0.963814 11.5587 26.9436 0 0 0 -1.16338 0.185115 -1.2544 -9.56905 
2700 10 0.979452 2.69166 12.3722 29.6868 0 0 0 0 0 0 -9.73264 
3056 9 -0.556673 0.5278 14.5364 26.9335 0 0 0 3.32019 2.42811 5.19331 -7.29144 
3062 9 -0.634392 2.19538 14.4757 29.8338 0 0 0 0 0 0 -7.76068 
2752 10 0.966469 2.40446 14.7449 27.6932 0 0 0 -0.81539 -2.43249 -0.760128 -9.64205 
2979 9 -0.588548 3.20933 12.9275 33.1985 0 0 0 0 0 0 -6.39126 
2755 9 -0.602073 0.961631 12.9708 31.4267 0 0 0 0 0 0 -6.9477 
3083 10 0.921954 2.04168 14.2853 32.4858 0 0 0 0 0 0 -9.15302 
3194 9 -0.515186 0.330847 14.1577 33.6452 0 0 0 0 0 0 -5.97135 
3234 10 0.985091 2.81126 11.0832 32.5951 0 0 0 0 0 0 -9.43767 
1794 5 -0.498257 0.0641864 16.4873 -5.53735 0 0 0 0 0 0 -5.96583 
1660 5 -0.567985 2.53288 15.5477 -7.05451 0 0 0 0 0 0 -5.29256 
1494 5 -0.515882 1.24813 17.72 -8.24278 0 0 0 0 0 0 -4.6362 
1541 6 0.890889 0.928701 15.8918 -8.1644 0 0 0 0 0 0 -10.4245 
1868 6 0.967979 3.57845 17.2789 -7.26231 0 0 0 0 0 0 -11.9754 
1429 5 -0.608791 2.46794 18.2132 -5.89243 0 0 0 0 0 0 -5.45514 
1846 5 -0.559895 2.20656 15.3126 -4.18135 0 0 0 0 0 0 -5.90502 
2035 6 0.957823 1.45173 17.2934 -4.38656 0 0 0 0 0 0 -12.3514 
1513 5 -0.686717 3.21839 17.5654 -3.29097 0 0 0 0 0 0 -5.39679 
1867 6 0.980588 3.45989 15.6079 -2.53379 0 0 0 0 0 0 -12.354 
1890 5 -0.673916 0.509407 17.8534 -2.34134 0 0 0 0 0 0 -5.40699 
1813 5 -0.621474 3.21919 16.8623 -0.757449 0 0 0 0 0 0 -5.41417 
1978 5 -0.599212 0.982018 15.4434 -1.62043 0 0 0 0 0 0 -5.45512 
311 2 0.592022 2.20923 15.0765 -0.0636974 0 0 0 0.513445 -0.323991 0.555004 -10.5931 
77 1 -0.675733 1.70431 17.3569 2.17398 0 0 0 -4.22239 4.90202 1.178 -5.90388 
2050 6 0.940723 2.3104 18.312 -1.79829 0 0 0 0 0 0 -11.9656 
147 2 0.659809 1.80185 18.2585 4.03453 0 0 0 -1.10919 0.472826 -0.328222 -10.6302 
360 2 0.656936 1.68806 15.4767 2.924 0 0 0 -1.64439 -1.56401 0.640098 -10.4981 
466 2 0.697188 3.47102 17.6654 1.37496 0 0 0 -1.57501 0.212876 1.20462 -11.0859 
256 1 -0.619684 3.69175 16.2836 3.6139 0 0 0 0.749231 -5.25465 6.50814 -5.92294 
609 1 -0.655104 1.96349 15.2747 5.66104 0 0 0 -6.70829 -7.16078 -3.43532 -6.516 
243 2 0.649929 3.27927 16.5675 6.31923 0 0 0 -0.198805 0.698959 1.61566 -10.5002 
637 1 -0.594636 0.362482 18.1676 5.72837 0 0 0 5.37186 0.634095 -6.23975 -6.63969 
837 4 0.804816 1.21095 15.4775 8.17644 0 0 0 -1.98073 -0.352688 1.01048 -10.5242 
790 3 -0.625217 2.56916 16.4152 10.6204 0 0 0 2.83073 -1.97137 0.765927 -6.88576 
588 1 -0.61091 1.70321 17.5016 7.98103 1 0 0 5.73267 0.381403 -5.37962 -6.73821 
1268 4 0.907156 1.84168 18.1085 9.89517 0 0 0 0.526191 -1.69811 2.1227 -10.688 
499 2 0.674429 0.0924691 16.0105 5.35655 0 0 0 0.0509333 -0.155133 -0.163168 -10.6666 
1346 4 0.992172 0.865682 16.4975 13.218 0 0 0 0.114234 -0.223954 0.546889 -10.0332 
725 3 -0.635987 0.546474 17.9595 11.8708 0 0 0 -3.10117 -0.528082 0.364748 -7.01196 
1275 3 -0.64661 1.24155 16.6188 15.2908 0 0 0 -0.673104 0.528339 1.05279 -7.32495 
906 3 -0.606409 3.46454 15.522 12.9315 0 0 0 -2.90302 -10.823 1.21094 -6.58093 
1034 3 -0.616941 2.80019 18.0865 13.2094 0 0 0 -4.36553 -2.68827 3.53649 -7.25358 
2212 8 1.03389 3.12818 17.464 15.2754 0 0 0 -1.11753 0.572007 -3.72022 -9.39082 
2271 8 0.994743 1.65716 14.9353 16.285 0 0 0 0.191834 -1.0512 0.413421 -9.66428 
1142 3 -0.658158 3.45868 15.3721 15.5702 0 0 0 1.77771 -0.402665 0.856205 -7.34907 
759 3 -0.493951 2.33948 18.4535 16.9535 0 0 0 -1.20188 -0.773727 -0.362229 -7.01034 
2614 7 -0.607734 3.0333 17.5216 22.969 0 0 0 -0.852408 -2.38934 -2.1274 -7.51048 
2509 8 1.03252 1.69536 17.5584 18.8335 0 0 0 -0.237072 1.73199 0.0894609 -9.30594 
2529 7 -0.594762 1.38129 15.5963 23.3644 0 0 0 -3.00383 -4.13626 -2.92793 -7.52794 
2201 8 0.984391 3.15547 15.6277 22.3593 0 0 0 -0.490856 1.87708 0.116371 -9.47858 
1109 3 -0.601548 2.16577 15.8705 18.1507 0 0 0 1.54189 -5.99752 1.60177 -7.18549 
2420 7 -0.504003 1.17746 17.9074 20.8369 0 0 0 -2.55365 -0.0902495 -6.09736 -7.34931 
1186 3 -0.584937 1.00571 15.0791 20.741 0 0 0 -4.303 -0.636262 3.5105 -7.44719 
2566 8 1.03502 1.58272 17.9024 24.3292 0 0 0 -0.407216 1.71596 2.50135 -9.45344 
2405 7 -0.57435 3.6867 15.9846 20.5045 0 0 0 2.73086 -0.404217 -2.82899 -7.40093 
3096 9 -0.477701 3.06375 15.4833 25.9136 0 0 0 3.48536 0.417455 3.57229 -7.1212 
2645 9 -0.581196 1.61784 16.9571 27.9899 0 0 0 -3.47071 -1.11612 3.49863 -7.28036 
2710 9 -0.481822 0.476439 16.898 25.5921 0 0 0 -3.30535 0.646352 -2.57622 -6.97756 
2729 9 -0.658581 2.71167 17.4642 30.2958 0 0 0 0 0 0 -6.99291 
2663 9 -0.598215 2.87822 18.1438 25.8414 0 0 0 4.05256 -2.8362 -1.65681 -7.53582 
3251 10 1.00399 1.06694 16.6412 29.982 0 0 0 0 0 0 -9.8061 
2779 10 1.0376 3.51347 17.7755 28.3458 0 0 0 0 0 0 -9.88126 
3029 9 -0.515161 3.44974 15.602 32.242 0 0 0 0 0 0 -6.5253 
3106 9 -0.625721 0.521541 16.2555 31.8065 0 0 0 0 0 0 -7.39391 
3158 10 0.81804 0.315896 18.1875 32.4367 1 0 0 0 0 0 -8.59622 
3266 10 0.892206 3.66313 18.3869 31.6653 0 0 0 0 0 0 -9.14884 
1972 6 1.03534 0.888159 19.1933 -7.0092 0 0 0 0 0 0 -12.1062 
1967 5 -0.588593 2.07052 20.8032 -6.40046 0 0 0 0 0 0 -5.56671 
1979 5 -0.552447 0.529018 19.2797 -4.62812 0 0 0 0 0 0 -5.71453 
1811 5 -0.278149 0.696846 20.3571 -8.59578 0 0 0 0 0 0 -3.70361 
1447 5 -0.444755 3.60165 18.9265 -8.3861 0 0 0 0 0 0 -4.5461 
1658 6 0.983163 2.04467 20.7183 -4.37171 0 0 0 0 0 0 -12.3106 
1619 5 -0.673597 1.99733 20.1149 -2.38092 0 0 0 0 0 0 -5.4719 
103 1 -0.558873 1.50515 20.1734 3.11721 0 0 0 0.0334044 -1.55676 -0.023307 -6.08807 
1918 6 1.03816 2.0474 21.6363 -1.14409 0 0 0 0 0 0 -12.5503 
1435 5 -0.634943 0.0227823 21.8156 -1.77234 0 0 0 0 0 0 -5.62877 
208 1 -0.609233 2.06583 21.671 0.84845 0 0 0 -0.0611841 -1.97906 0.302302 -5.58566 
260 1 -0.582006 2.77177 19.255 0.151552 0 0 0 -2.84543 2.74517 -1.44463 -5.76492 
407 2 0.69595 3.29741 20.9197 3.69645 0 0 0 1.91823 0.284401 1.25231 -10.7926 
280 2 0.676551 0.279231 21.4539 1.9063 0 0 0 0.184358 -0.855219 0.242739 -11.0333 
653 2 0.620072 0.784351 18.5187 0.595638 0 0 0 -2.7764 1.26273 -0.633667 -10.767 
263 2 0.723001 1.63096 19.5572 6.85404 1 0 0 -0.362698 0.659924 1.81638 -10.8354 
1396 4 0.89486 0.431812 21.5007 9.34541 0 0 0 -1.03854 -1.26779 -1.56945 -10.4336 
532 1 -0.591332 1.01199 21.1216 5.7561 0 0 0 -0.196032 -1.85749 1.2504 -6.17412 
879 4 0.844655 3.37829 20.9022 9.83255 0 0 0 0.250841 1.1681 -0.0747812 -10.4178 
834 3 -0.59876 3.17218 20.6102 7.89499 0 0 0 -2.03132 3.54813 -4.42618 -6.85233 
1263 3 -0.617363 1.2325 19.9463 10.4908 0 0 0 0.334494 3.7798 -5.41958 -6.75285 
131 1 -0.660242 3.24889 18.6454 5.41062 0 0 0 -5.05604 2.97618 1.25841 -6.60793 
590 1 -0.58899 0.00164277 19.9799 8.12772 0 0 0 0.250518 0.805525 2.70562 -6.46671 
786 3 -0.559702 3.08733 21.0296 16.5772 0 0 0 -0.501091 2.56821 -9.8399 -6.88443 
1283 4 0.971728 3.21899 21.6683 14.6671 0 0 0 -0.7528 -1.48383 0.184964 -9.63756 
912 3 -0.667541 2.8047 21.1581 12.5262 0 0 0 -0.825198 -3.21132 0.61331 -7.49532 
1328 3 -0.505394 1.46701 19.6883 14.7288 1 0 0 -2.26264 3.81342 -2.87981 -6.94025 
954 4 1.011 1.67999 19.6248 12.5286 0 0 0 1.51331 -0.0600729 -1.33635 -10.1823 
1214 4 1.03092 1.22611 20.1077 16.6892 0 0 0 -0.270955 0.855111 -0.498662 -9.5348 
2222 7 -0.508404 0.308138 22.0982 17.292 1 0 0 3.96121 2.41616 -0.769604 -6.90394 
2494 7 -0.631585 0.990659 21.3989 20.9108 0 0 0 7.73141 1.39541 0.0989694 -7.56674 
2390 8 1.00661 2.91872 21.3966 23.2724 0 0 0 2.20525 -2.29649 0.0565547 -9.41375 
2474 7 -0.583436 3.01379 19.9496 21.7319 0 0 0 4.11953 2.46983 -2.54948 -7.43825 
2305 8 0.984954 0.466179 19.5748 21.7948 0 0 0 1.43454 0.143094 0.348532 -9.60284 
2182 8 1.00686 2.86737 20.306 19.7717 0 0 0 -0.46972 -0.333508 2.46974 -9.39341 
2208 7 -0.603813 1.74146 19.9067 23.9019 0 0 0 4.14256 0.0917241 3.69302 -7.31495 
815 3 -0.592173 1.01813 19.8347 18.8949 0 0 0 -2.15771 2.38792 -1.08002 -7.35194 
2187 7 -0.480986 3.54835 18.4927 19.4717 0 0 0 -4.61624 3.71601 1.56408 -7.14603 
3175 9 -0.662675 3.30036 21.1557 30.7938 0 0 0 0 0 0 -7.78742 
2874 10 0.898859 1.44635 19.8716 30.1297 0 0 0 0 0 0 -9.61614 
2706 9 -0.555544 0.917585 21.6803 29.8939 0 0 0 0 0 0 -7.10832 
2799 10 1.02743 3.26544 20.152 26.0383 0 0 0 0.416428 -2.10712 0.545488 -9.56026 
3027 9 -0.621518 1.20382 20.354 26.3211 0 0 0 -2.1445 3.42959 -5.02358 -6.88714 
3183 9 -0.606826 2.34913 19.5046 28.4208 0 0 0 2.32342 -1.48301 1.76535 -7.36657 
2754 9 -0.492099 3.04918 21.946 25.3112 0 0 0 -2.95682 4.35325 -0.0721917 -6.92788 
3316 10 0.985255 0.677637 22.0185 27.6596 0 0 0 2.2173 2.60718 0.629094 -9.48725 
3188 10 0.967194 0.566768 18.792 27.2849 0 0 0 -0.218747 -0.0181922 -0.879159 -9.59824 
3195 9 -0.620642 0.0548186 18.5631 30.2141 0 0 0 0 0 0 -7.4993 
2341 8 1.01858 0.0386001 21.16 24.7437 1 0 0 -0.311983 1.62365 3.30303 -9.53583 
3164 9 -0.562512 2.65547 22.0349 27.9261 0 0 0 0.313194 0.67982 3.41521 -7.2307 
2835 9 -0.673376 1.94633 19.1452 32.1451 0 0 0 0 0 0 -7.20769 
3134 10 0.927177 2.38531 21.2691 32.5699 0 0 0 0 0 0 -8.95916 
2651 9 -0.591074 0.501094 21.4699 32.7366 0 0 0 0 0 0 -6.81298 
1948 5 -0.59105 1.19865 24.6821 -5.78399 0 0 0 0 0 0 -5.55884 
2100 6 1.00278 0.557013 22.7917 -6.47164 0 0 0 0 0 0 -12.0447 
1538 5 -0.456544 2.10184 23.0185 -7.73334 0 0 0 0 0 0 -4.66255 
1646 5 -0.520721 2.99077 25.544 -7.62704 0 0 0 0 0 0 -4.81801 
1616 5 -0.602611 3.5821 23.3774 -5.14788 0 0 0 0 0 0 -5.4126 
1490 5 -0.558227 1.13614 22.4621 -4.34833 0 0 0 0 0 0 -5.74154 
1849 6 1.05927 2.2655 24.1277 -3.93767 0 0 0 0 0 0 -12.6279 
2102 5 -0.607696 1.02916 25.5128 -3.3119 0 0 0 0 0 0 -5.4801 
2006 5 -0.626763 0.871247 25.1573 -0.832466 0 0 0 0 0 0 -4.85003 
251 2 0.708665 2.72299 23.1955 1.92764 0 0 0 -2.51226 -1.08424 -0.491683 -10.9645 
1987 6 1.01121 2.9163 25.0266 -1.21695 0 0 0 0 0 0 -12.4349 
1959 5 -0.588006 2.29005 23.2793 -2.00933 0 0 0 0 0 0 -5.25591 
167 1 -0.636031 2.70934 24.9028 1.10157 0 0 0 4.64102 -4.97644 0.956447 -5.74129 
363 1 -0.558892 1.71769 22.8843 3.6852 0 0 0 0.255299 3.91321 -2.65616 -6.11703 
126 2 0.736124 0.585051 25.7657 0.949951 0 0 0 0.0486774 -0.307518 -0.279181 -11.8199 
478 2 0.696336 2.67807 25.7184 3.76583 0 0 0 1.36426 -0.102997 0.0094552 -11.0312 
432 1 -0.638774 3.12842 24.488 5.31947 0 0 0 3.69927 -2.72025 -1.51141 -6.18287 
942 3 -0.63178 1.76767 22.655 10.4166 0 0 0 -5.40528 -3.2248 1.70053 -7.05689 
1376 3 -0.513862 1.90633 25.4522 10.5876 0 0 0 1.48758 -1.04958 6.51011 -6.94047 
944 4 0.908653 2.55533 23.9531 8.93767 0 0 0 0.431305 0.22723 2.20426 -10.8942 
439 1 -0.638231 2.69893 25.7222 7.92357 0 0 0 -2.37482 -0.517455 -3.81566 -6.36976 
1018 4 0.85269 1.11237 25.2429 6.74918 0 0 0 0.670807 0.913398 -0.353294 -10.7174 
17 1 -0.615949 1.42221 22.8257 7.67472 0 0 0 0.4004 0.406198 -0.00267103 -6.38386 
603 2 0.702114 2.44614 22.5952 5.88433 0 0 0 0.760503 -0.89765 -1.64644 -10.9343 
1320 3 -0.670849 1.85269 25.5173 15.5721 0 0 0 -6.58882 -7.00935 -4.14375 -7.73861 
1244 3 -0.619182 1.70745 24.2422 13.0694 0 0 0 -7.62746 4.16846 -1.56001 -7.10366 
1145 4 0.955772 2.93654 23.1024 12.0389 0 0 0 -1.97234 0.799047 -0.730631 -10.075 
973 4 1.01441 0.74548 25.7362 13.8011 0 0 0 2.39974 0.101795 -1.54268 -9.68146 
1398 3 -0.60956 1.5484 22.5382 15.0857 0 0 0 -1.55391 -0.102869 -8.27982 -7.33403 
2422 8 1.03044 1.4366 23.787 16.7586 0 0 0 0.546692 1.38805 -0.560518 -9.50333 
1337 4 0.969111 0.254074 22.6226 13.5964 1 0 0 -2.23016 0.971852 -0.949296 -9.71981 
843 4 0.922766 3.51357 25.1724 14.5886 0 0 0 -0.994963 -1.82021 1.58699 -9.86751 
2862 9 -0.533124 1.39217 25.1178 24.2243 0 0 0 -2.83072 -0.107761 -0.881377 -7.04287 
1324 3 -0.558814 2.41441 24.7715 18.2683 0 0 0 -2.73501 -7.27656 0.999228 -7.45094 
2512 8 1.00199 2.4728 23.6402 19.9329 0 0 0 -0.534189 -1.94537 0.247192 -9.6593 
2586 8 1.03422 2.73582 24.855 22.8365 0 0 0 -1.28299 -0.427373 0.964558 -9.2967 
2144 7 -0.581069 3.13796 22.9323 21.7977 0 0 0 1.4261 -0.237933 6.48724 -7.46919 
2427 7 -0.512764 1.00985 22.4733 23.4393 0 0 0 2.75313 -2.58474 -3.20645 -7.21948 
2258 7 -0.605846 1.1137 24.5288 21.6089 0 0 0 -2.14554 -3.00906 6.82795 -7.02769 
2199 7 -0.602367 3.1809 25.6975 20.8318 0 0 0 3.92283 0.841894 -0.41522 -7.29649 
2605 7 -0.580378 0.127928 23.6303 19.52 0 0 0 -0.215179 0.139819 2.08692 -7.40575 
1255 3 -0.635673 2.50032 22.2009 18.7714 0 0 0 -2.05754 -0.796901 -3.10059 -7.03256 
3279 9 -0.536364 3.60516 24.3688 25.3509 0 0 0 -6.8152 -1.41843 1.15173 -7.13901 
3065 10 0.940772 2.23517 23.2046 30.1036 0 0 0 0 0 0 -9.60742 
3294 9 -0.523305 2.40054 24.6411 27.7811 0 0 0 0 0 0 -7.38085 
2938 10 0.959575 1.08514 24.5817 26.0724 0 0 0 1.18098 -0.626319 -0.844451 -9.16611 
3318 9 -0.633283 0.917637 24.5571 30.415 0 0 0 0 0 0 -7.46229 
2739 9 -0.649485 0.0643403 22.7267 25.9482 1 0 0 -0.172866 1.10837 2.9088 -7.80528 
3222 9 -0.594364 2.39317 23.3911 32.4246 0 0 0 0 0 0 -7.02368 
3257 10 0.905211 0.341302 23.912 32.3636 1 0 0 0 0 0 -9.29754 
1464 6 0.98527 1.82119 28.7903 -5.30082 0 0 0 0 0 0 -12.327 
2080 5 -0.517317 2.03618 27.87 -6.97495 0 0 0 0 0 0 -5.23521 
1474 5 -0.553108 0.256207 27.2246 -5.26244 0 0 0 0 0 0 -5.65727 
1722 6 0.948242 1.0825 26.0824 -7.20737 0 0 0 0 0 0 -11.0682 
2078 5 -0.521802 3.53787 26.4414 -5.07638 0 0 0 0 0 0 -5.65527 
2024 5 -0.607382 2.03568 28.1615 -3.27404 0 0 0 0 0 0 -5.86454 
1434 5 -0.60027 0.527382 27.7145 -0.180191 0 0 0 0 0 0 -5.89479 
531 2 0.649394 1.80107 28.6154 3.14445 0 -1 0 -2.6154 -1.5508 -2.58505 -10.7365 
2028 5 -0.652074 2.98763 26.9207 -0.88299 0 0 0 0 0 0 -5.36447 
1677 6 1.01969 0.654312 27.1268 -2.18933 0 0 0 0 0 0 -12.8056 
1518 6 0.92669 2.43224 28.7955 -0.143219 0 0 0 0 0 0 -12.1354 
656 1 -0.718474 3.18233 28.2829 1.74505 0 -1 0 3.67908 2.33565 -0.988321 -5.94519 
5 1 -0.636743 0.749738 25.909 3.0172 0 0 0 -3.7555 2.09823 -1.19907 -6.28568 
497 2 0.709204 3.07275 27.6761 8.14111 0 0 0 -0.384906 1.33735 -0.174856 -10.7935 
509 2 0.652623 0.627793 27.9093 5.82028 0 0 0 -0.244969 -1.19813 0.230728 -10.5377 
689 1 -0.664029 2.35762 27.438 4.8107 0 0 0 -1.45643 -0.522565 7.14482 -6.30138 
1044 3 -0.663103 2.20757 28.3053 9.96237 0 -1 0 -1.66545 -3.1307 -1.46805 -6.77681 
344 1 -0.659689 0.597384 27.6439 7.74967 0 -1 0 3.79196 4.65897 -3.88263 -6.23629 
1332 4 0.943057 0.751683 29.4815 8.59704 0 -1 0 -1.50061 1.24003 3.38643 -10.9166 
130 1 -0.627361 2.93169 29.419 6.97636 0 -1 0 7.40792 -1.01082 -0.285072 -6.47059 
1374 3 -0.599603 2.27089 26.9527 13.0463 0 0 0 1.71169 0.308185 -1.36568 -7.29924 
760 4 0.931372 0.966882 27.5337 11.2583 0 0 0 0.432248 -1.17247 -0.579517 -10.4841 
1131 3 -0.604783 1.21096 28.9192 17.3148 0 -1 0 -2.64261 4.91023 8.15872 -7.07313 
814 4 0.963051 1.78137 27.3727 16.4446 0 0 0 1.28224 1.81033 -0.652812 -9.2875 