ITEM: TIMESTEP
1195000
ITEM: NUMBER OF ATOMS
3344
ITEM: BOX BOUNDS pp pp ff
0.0000000000000000e+00 2.9568339197007298e+01
0.0000000000000000e+00 2.9557327187619936e+01
-8.8921683279491504e+00 4.4289169250706017e+01
ITEM: ATOMS id type q x y z ix iy iz vx vy vz c_eng 
1802 6 0.970135 1.72377 2.50099 -5.82381 0 0 0 0 0 0 -11.9573 
1748 5 -0.553023 2.14213 1.02008 -7.10683 0 0 0 0 0 0 -5.47585 
2036 6 0.847995 0.0809441 0.962855 -7.73073 0 0 0 0 0 0 -10.0614 
1735 5 -0.638315 0.00588152 2.79086 -7.00765 0 0 0 0 0 0 -5.74786 
1835 5 -0.588901 1.86152 1.03922 -4.37975 0 0 0 0 0 0 -5.2348 
1553 6 1.04598 0.84297 0.869261 -2.65107 0 0 0 0 0 0 -12.4717 
1851 5 -0.549431 2.86938 2.1503 -2.36357 0 0 0 0 0 0 -4.99388 
1662 5 -0.699647 1.36456 0.727277 -0.805768 0 0 0 0 0 0 -5.21367 
1877 5 -0.485282 1.02712 3.482 -1.02956 0 0 0 0 0 0 -5.71716 
1879 6 0.939028 2.7345 2.50478 -0.383048 0 0 0 0 0 0 -12.0802 
111 1 -0.689412 0.48651 2.33006 2.40329 1 0 0 -7.36875 1.56386 1.10861 -6.24128 
565 2 0.63117 0.270052 1.18915 0.716922 1 0 0 0.704627 -1.5892 -0.34185 -10.6165 
507 2 0.683962 2.39361 2.34609 2.77216 0 0 0 0.64125 0.995168 -2.65562 -10.9152 
248 1 -0.645566 3.10083 0.729715 3.84876 0 0 0 -0.255137 -3.47293 -2.59971 -6.28273 
122 1 -0.590779 1.49088 3.25314 5.3584 0 0 0 2.95713 0.683269 -5.4581 -6.24424 
430 1 -0.575997 1.46604 1.4505 10.0072 0 0 0 -0.377129 -4.82205 1.85062 -6.84781 
367 2 0.712879 1.56537 3.17592 7.4606 0 0 0 0.150466 0.0113929 -0.0586564 -10.6813 
484 1 -0.613574 0.736771 1.27352 7.27537 1 0 0 2.33608 -4.03134 -0.54543 -6.0517 
567 2 0.691245 1.90071 1.17647 5.53111 0 0 0 0.630319 -3.29868 -1.76528 -10.8147 
1422 4 0.979217 3.44179 3.23905 10.6543 0 0 0 -0.513815 -1.71895 -2.39645 -10.621 
928 4 0.95126 3.67971 0.275563 10.5221 0 0 0 -1.85734 -1.26139 -0.680829 -10.6553 
88 1 -0.651691 0.0458402 0.0585364 4.8989 0 1 0 1.60221 5.83516 2.98826 -6.22889 
1098 4 0.951545 1.18873 1.35246 12.3719 0 0 0 -0.781815 1.15261 -0.283905 -9.99568 
1143 3 -0.655114 2.46321 3.46201 15.7192 0 0 0 -4.02962 0.10919 -2.48966 -7.5549 
1117 4 0.964077 3.46623 3.52834 13.9272 0 0 0 0.12872 0.412129 0.880817 -10.0736 
1121 3 -0.494698 1.05771 0.693936 14.9429 0 0 0 -4.36049 -0.17717 -0.977853 -7.06105 
1271 3 -0.60285 2.19692 3.1981 12.235 0 0 0 8.87025 -3.56982 6.04615 -7.06759 
1175 4 1.01091 2.73169 1.13452 15.9072 0 0 0 1.40159 -1.86298 0.123656 -9.64125 
1339 3 -0.607982 2.75895 0.395643 12.3746 0 0 0 -6.17567 -2.78528 -4.77573 -6.73861 
840 3 -0.582481 0.22055 2.97517 13.8612 1 0 0 3.34555 0.304592 0.190485 -7.15694 
1173 3 -0.584597 1.29275 3.19674 20.4561 0 0 0 -0.10032 -0.447724 -3.71923 -7.61765 
2397 7 -0.555654 0.259068 0.63701 20.9343 1 0 0 -1.9475 -3.16786 2.187 -6.7377 
2296 7 -0.564271 0.92864 2.12922 23.0401 0 0 0 -1.52254 5.11425 0.73379 -6.95907 
2507 7 -0.602989 3.339 0.995371 22.8912 0 0 0 4.10485 -7.15215 0.510519 -7.26566 
2398 8 1.03128 1.99844 1.38474 21.3101 0 1 0 0.530544 0.50379 0.0754577 -9.42178 
2500 8 0.993883 0.694187 2.7231 18.4063 1 0 0 -1.83464 1.08892 1.59204 -9.57717 
958 3 -0.552129 2.68561 0.00929862 19.6745 0 0 0 1.66179 -4.22578 -3.37868 -7.23119 
1147 3 -0.55747 2.2909 1.68543 17.7533 0 0 0 -0.106228 3.05946 5.6373 -7.22998 
3018 10 1.04575 1.20354 1.50003 27.6152 0 0 0 1.84032 -0.448059 1.93084 -9.72791 
3067 9 -0.678042 3.00737 1.46197 30.3488 0 0 0 0 0 0 -6.99926 
3041 9 -0.491285 1.48362 3.22517 28.6783 0 0 0 0 0 0 -6.70182 
3191 9 -0.592569 1.89751 3.33541 25.6503 0 0 0 2.46979 2.48273 3.28094 -7.48726 
2951 9 -0.556849 0.566274 0.98527 25.7947 0 0 0 -2.47107 5.58205 1.90195 -7.17453 
3143 9 -0.500176 0.431315 0.959156 29.5551 1 0 0 0 0 0 -6.63866 
3095 10 0.98335 1.6271 2.89977 30.8277 0 0 0 0 0 0 -9.88339 
2309 8 1.02398 2.15471 1.64184 24.4621 0 0 0 -0.421165 0.552224 -0.0898577 -9.43942 
2814 9 -0.597851 3.52562 2.17341 27.4565 0 0 0 4.60726 0.00649348 3.9359 -7.50636 
3190 9 -0.490917 0.786432 1.77354 32.0981 1 0 0 0 0 0 -6.07616 
1684 6 0.747584 0.445091 4.47978 -7.87932 0 0 0 0 0 0 -9.54713 
1477 6 0.980339 3.45909 7.12012 -5.47067 0 0 0 0 0 0 -12.19 
1857 5 -0.515779 2.03107 5.78746 -5.97954 0 0 0 0 0 0 -5.35843 
1590 6 1.07073 0.5084 5.42608 -4.74455 0 0 0 0 0 0 -12.0902 
1975 5 -0.439399 2.4352 3.78853 -7.65315 0 0 0 0 0 0 -5.02978 
1821 6 0.993585 3.36803 4.02944 -3.5146 0 0 0 0 0 0 -12.2636 
1825 5 -0.555934 1.508 3.72219 -4.38085 0 0 0 0 0 0 -5.79166 
1909 5 -0.636948 0.0620847 7.24473 -4.24721 0 0 0 0 0 0 -5.4758 
1818 5 -0.471719 2.15343 5.84321 -2.82165 0 0 0 0 0 0 -5.66349 
339 1 -0.649782 2.5137 4.09881 1.31275 0 0 0 0.588016 -6.20794 9.68526 -5.72589 
1896 6 0.953442 3.05576 5.78935 -0.958883 0 0 0 0 0 0 -11.7571 
1641 5 -0.653459 1.11592 5.99735 -0.226154 0 0 0 0 0 0 -5.64496 
1664 6 0.997087 0.000928956 6.49668 -1.72773 0 0 0 0 0 0 -12.4329 
400 2 0.650021 2.84711 5.89748 2.179 0 0 0 -0.470139 0.265655 0.515118 -10.5208 
428 2 0.677767 0.404061 4.44841 0.85336 0 0 0 0.146315 -0.75442 0.719962 -11.2396 
579 1 -0.633217 1.21849 5.49668 3.46785 0 0 0 0.825207 -9.01547 -2.56589 -6.27407 
114 2 0.720972 0.0313786 3.83194 3.83173 0 0 0 -0.886411 0.787945 0.579656 -11.097 
580 1 -0.652259 3.51976 6.71655 4.3973 0 0 0 -1.20736 2.64663 4.07896 -6.32989 
202 2 0.685603 0.379877 5.6703 6.47104 1 0 0 0.738285 -0.140086 0.675332 -10.6949 
142 1 -0.692675 2.39566 5.3469 6.81835 0 0 0 0.124053 -1.40155 2.54778 -6.51795 
980 4 0.906228 1.57286 5.61304 9.48527 0 0 0 1.09774 -1.45685 -0.0418678 -10.7318 
55 1 -0.635606 2.61762 3.96374 9.035 0 0 0 1.8835 -0.0585056 -0.0168796 -6.73236 
310 2 0.705678 3.12952 4.75411 4.92945 0 0 0 0.709061 -1.3748 0.239775 -10.9683 
581 2 0.66366 2.95599 7.34919 6.65065 0 0 0 0.344185 0.564538 -2.57691 -10.556 
2393 8 0.981525 0.65597 4.15294 15.5968 0 0 0 1.46275 -1.06889 -1.57034 -9.78131 
891 3 -0.518042 0.743131 6.35625 16.2858 0 0 0 -0.0197194 5.94176 2.92392 -6.80584 
37 1 -0.589522 1.89522 5.92564 11.2889 0 0 0 -4.19629 3.95951 -5.25531 -6.56276 
1114 3 -0.586174 1.55535 5.36711 13.945 0 0 0 2.18418 1.04323 3.39338 -7.06394 
1192 4 1.01232 2.76952 6.78975 14.8558 0 0 0 2.12703 0.892947 -1.25937 -10.0043 
762 3 -0.64178 3.34266 5.9337 16.575 0 0 0 2.71425 0.483518 -3.1415 -7.36094 
886 4 0.992073 0.42876 4.59659 12.379 0 0 0 1.1102 0.531133 -1.09625 -10.198 
2304 8 1.02498 0.487181 4.89746 21.4458 1 0 0 1.03103 -0.439338 0.58355 -9.35385 
2521 7 -0.578985 2.27263 5.856 20.385 0 0 0 0.8664 4.21188 -2.79211 -7.39457 
2202 7 -0.540473 1.72599 4.71902 22.9884 0 0 0 4.1594 -0.620445 0.420065 -7.44805 
937 3 -0.639067 2.68656 4.15492 18.3838 0 0 0 -8.01227 3.86296 -2.7696 -6.83815 
2551 8 1.00628 1.75012 5.94061 18.2582 0 0 0 2.08704 0.998674 1.1229 -10.0408 
2618 8 1.0183 3.32003 4.09411 20.1794 0 0 0 -0.549696 -1.14624 -1.34401 -9.73204 
2151 7 -0.585076 0.11995 4.5994 18.1179 1 0 0 3.06346 -1.63673 -1.53892 -7.3872 
2900 10 1.01124 0.83129 4.78606 24.7363 0 0 0 -0.348103 0.918049 -0.29052 -9.42446 
3034 9 -0.638554 2.77141 4.61598 30.302 0 0 0 0 0 0 -7.02735 
3344 9 -0.502661 3.54297 5.7384 25.3668 0 0 0 -3.35787 2.84862 2.50535 -7.2183 
3073 9 -0.500581 1.7164 5.60095 27.4752 0 0 0 -6.63955 5.2105 -1.78863 -6.88883 
2693 10 0.980766 3.05979 6.26374 28.7915 0 0 0 -0.767215 0.546936 -2.2906 -9.80494 
3125 9 -0.594934 0.142154 6.06467 29.6391 0 0 0 0 0 0 -7.44853 
3184 9 -0.534579 1.07539 6.82036 24.6934 1 0 0 3.73791 3.34853 -3.93529 -7.13793 
3146 10 0.984422 0.675586 7.29571 26.4444 0 0 0 2.00501 -0.363452 -0.783747 -9.34404 
3093 9 -0.582048 0.670554 4.44393 31.9083 0 0 0 0 0 0 -6.60127 
3136 9 -0.595469 0.779789 7.26114 32.4875 0 0 0 0 0 0 -6.45811 
2857 9 -0.538134 3.60868 6.06202 32.4556 0 0 0 0 0 0 -6.33742 
2880 10 0.934192 1.54446 6.02904 31.2853 0 0 0 0 0 0 -9.80639 
1668 5 -0.476953 1.63997 10.6759 -7.73594 0 0 0 0 0 0 -4.69425 
1710 6 0.979645 3.38049 9.89261 -7.55904 0 0 0 0 0 0 -11.2474 
1995 5 -0.560534 1.79091 8.27744 -5.98123 0 0 0 0 0 0 -5.40905 
1930 6 0.872176 0.671595 7.74624 -7.51036 0 0 0 0 0 0 -10.9178 
1697 5 -0.557905 3.30886 10.3971 -5.66731 0 0 0 0 0 0 -5.21381 
1842 5 -0.401045 2.53401 8.15933 -8.52032 0 0 0 0 0 0 -4.40718 
2066 6 1.02427 1.2887 8.79252 -4.10193 0 0 0 0 0 0 -12.2485 
1595 5 -0.544996 3.06416 8.26859 -3.57222 0 0 0 0 0 0 -5.40321 
2025 5 -0.590067 1.63253 10.6279 -3.32851 0 0 0 0 0 0 -5.53433 
1628 5 -0.635697 3.03568 10.4086 -0.960219 0 0 0 0 0 0 -5.75738 
1920 5 -0.574442 0.902622 8.3273 -2.0179 0 0 0 0 0 0 -5.87341 
1504 6 0.961904 1.05007 10.0838 -1.02812 0 0 0 0 0 0 -11.9794 
380 2 0.66496 0.500806 7.79093 0.9843 0 0 0 -1.93962 0.0587699 2.45529 -10.9943 
423 1 -0.613398 0.645271 10.0458 0.878304 0 0 0 -2.03152 -1.09375 -4.02795 -5.93906 
137 2 0.658033 1.45684 7.41957 4.003 0 0 0 -0.636302 -1.65544 4.11744 -10.4387 
663 1 -0.568835 2.49046 7.8865 1.20026 0 0 0 -6.83216 6.71083 -3.07808 -6.19441 
530 2 0.709468 3.56135 9.68307 1.04688 0 0 0 1.25542 1.00921 -1.83758 -11.4215 
345 1 -0.606068 1.95799 9.50099 3.73621 0 0 0 -3.69476 -3.78023 -2.87388 -6.32959 
213 2 0.683961 0.111173 10.0711 2.93336 0 0 0 2.72855 -0.610735 -1.16074 -10.866 
577 1 -0.637143 3.47035 9.17848 6.3254 0 0 0 -2.78163 4.67012 -0.772139 -6.58828 
1085 3 -0.643058 0.887576 9.77797 8.06483 0 0 0 2.1161 6.32201 -5.75253 -6.83173 
100 1 -0.661174 0.838089 7.71663 5.8911 0 0 0 -1.46312 -1.90553 -7.39757 -6.76411 
614 2 0.728663 1.37311 9.94053 6.07583 0 0 0 0.505825 0.860671 0.561505 -11.1531 
1006 4 0.896977 2.74775 9.79131 9.14555 0 0 0 0.214912 -1.44293 0.908792 -10.8575 
1362 4 0.905319 0.0830388 8.02076 8.60909 0 0 0 -1.33399 1.54664 2.45777 -10.8548 
421 1 -0.667466 0.0463352 8.13421 10.6657 0 0 0 4.3321 1.23761 4.50611 -7.28791 
480 1 -0.653753 2.43235 7.53027 8.7847 0 0 0 0.0362542 0.267859 -2.28866 -6.87577 
474 1 -0.589218 3.09205 7.77507 13.1016 0 0 0 4.3976 3.64418 -0.232571 -6.86535 
993 3 -0.615469 2.21288 8.41907 15.7397 0 0 0 4.66275 -3.77142 -1.86181 -7.17247 
1115 3 -0.604849 0.581954 10.1097 16.9713 1 0 0 -3.50552 -6.89069 6.82189 -7.19201 
800 4 0.997648 0.981605 9.79241 14.7777 0 0 0 1.58479 -0.0563287 -2.28207 -10.0479 
1334 3 -0.641597 1.38563 10.7174 13.0074 1 0 0 -0.833985 0.349966 -0.218287 -6.92486 
922 4 0.964369 1.75022 7.74703 11.7855 0 0 0 1.32134 -1.01538 -2.709 -10.2705 
1321 3 -0.416243 2.9323 10.8233 15.4789 0 0 0 1.77181 -8.16727 -2.85326 -6.59314 
780 4 1.07702 3.17864 10.9638 12.3591 0 0 0 0.429221 0.177134 -0.185881 -10.5296 
1024 4 0.951873 0.0464362 10.2223 11.5607 1 0 0 -1.08389 -1.02785 0.851259 -10.353 
1291 3 -0.59 0.355313 8.21339 13.363 0 0 0 -0.87777 -3.97536 -0.5764 -7.15928 
2178 8 0.994648 2.2814 9.03109 17.6007 0 0 0 -1.86024 1.0147 -0.934832 -9.97773 
1138 3 -0.631158 2.4092 9.61198 11.0429 0 0 0 2.54982 -4.15495 -6.48651 -6.85516 
2549 8 1.02335 2.84193 8.6359 22.8696 0 0 0 1.11327 0.988989 -2.6513 -9.28948 
1216 3 -0.637273 0.775201 7.74577 18.3927 0 0 0 -0.175076 0.59152 -1.63749 -7.30701 
2205 7 -0.637012 2.9125 8.89717 20.8682 0 0 0 3.21064 -0.752528 0.388172 -6.95125 
2177 7 -0.534393 0.981231 7.57569 22.1778 1 0 0 0.999247 0.210046 0.688007 -6.94515 
2443 7 -0.454553 1.27571 9.92728 23.1714 1 0 0 0.173111 -1.10744 -2.94684 -6.49007 
2270 7 -0.611121 0.508017 9.89746 19.8115 1 0 0 6.62966 -1.56532 9.63587 -7.1174 
2417 8 0.997581 0.462724 8.05378 20.344 0 0 0 -2.30626 0.775921 0.598869 -9.59617 
2256 8 1.00215 2.217 10.6641 20.6408 0 0 0 -0.208902 -1.73095 1.53604 -9.49231 
924 3 -0.608618 2.54836 10.846 18.6273 0 0 0 -2.84985 -1.48032 0.583199 -7.65699 
2306 7 -0.552029 3.37582 10.8476 22.2371 0 0 0 4.8525 1.27226 -1.81791 -7.00887 
1210 3 -0.620153 3.27797 7.57445 18.6364 0 0 0 -5.88264 -1.81394 -0.905829 -7.03434 
3121 9 -0.631243 0.152532 8.93271 30.2329 1 0 0 0 0 0 -7.30665 
3058 9 -0.47184 3.4196 8.3252 24.7064 0 0 0 4.12586 0.794606 0.973207 -7.09474 
2913 9 -0.574457 3.02319 10.6366 28.2098 0 0 0 -0.839793 -3.06664 -0.563522 -7.40671 
3005 9 -0.553793 2.03608 10.305 25.8176 0 0 0 -6.30819 -3.56577 -0.667993 -7.00389 
3211 9 -0.612671 2.05439 8.2103 27.6782 0 0 0 4.48207 4.6046 -2.10616 -7.21332 
2926 10 1.01824 3.50592 9.10468 26.5586 0 0 0 1.61928 -0.501399 -0.61317 -9.41357 
3282 10 1.03862 1.92536 9.26746 29.2311 0 0 0 0 0 0 -9.76964 
2811 9 -0.679319 2.54944 7.50026 30.2657 0 0 0 0 0 0 -7.45195 
3241 9 -0.583091 2.09825 10.6583 30.7246 0 0 0 0 0 0 -7.17063 
2884 9 -0.574302 0.159562 10.0217 27.8904 0 0 0 -0.949296 0.515885 0.38124 -6.92907 
2844 9 -0.515298 2.70608 9.05488 32.7021 0 0 0 0 0 0 -6.08987 
2720 10 0.960484 0.586053 9.23248 32.092 0 0 0 0 0 0 -9.93531 
2980 9 -0.557252 0.970571 10.9083 33.3026 0 0 0 0 0 0 -6.27612 
1493 5 -0.589805 2.35219 13.0278 -5.98123 0 0 0 0 0 0 -5.554 
1511 6 0.956726 1.09744 12.4774 -7.27982 0 0 0 0 0 0 -10.7851 
1536 6 1.01958 3.558 14.5659 -5.53605 0 0 0 0 0 0 -12.3931 
1840 5 -0.658266 0.144928 14.3137 -7.28475 0 0 0 0 0 0 -5.39138 
1539 5 -0.586803 0.627142 13.0312 -4.04772 0 0 0 0 0 0 -5.47785 
1484 6 1.0692 2.91084 11.6975 -4.45009 0 0 0 0 0 0 -12.3225 
1939 5 -0.572126 2.99669 12.8641 -2.9592 0 0 0 0 0 0 -5.10635 
1437 6 1.00127 0.700984 13.5913 -2.07916 0 0 0 0 0 0 -12.5141 
2018 6 1.00222 3.42527 12.3296 -1.12582 0 0 0 0 0 0 -12.3803 
1764 5 -0.720204 1.58091 13.0119 -0.521059 0 0 0 0 0 0 -5.35708 
586 1 -0.657857 2.08449 13.4827 3.18905 0 0 0 3.70916 -6.86899 0.415588 -6.05739 
146 2 0.641179 1.30686 12.1862 1.17731 1 0 0 -0.71069 0.980108 -0.867417 -10.6968 
398 2 0.725215 2.83087 11.4526 3.50068 0 0 0 -0.688542 0.528518 -1.9834 -10.8706 
697 1 -0.722082 3.27895 11.5855 1.5431 0 0 0 0.528346 2.36584 1.59814 -6.10371 
665 2 0.708075 0.371675 12.9732 4.24511 1 0 0 -0.00527699 -0.265125 -1.52846 -11.0065 
807 4 0.909265 1.01748 12.4828 9.26699 0 0 0 0.0955154 -0.834103 -2.23159 -10.6652 
218 1 -0.645222 0.36515 12.9655 7.55248 0 0 0 -2.49071 0.988615 1.15001 -6.50321 
416 2 0.749913 2.18515 13.1122 6.64384 0 0 0 0.266134 0.685424 0.336138 -10.9074 
572 1 -0.629201 1.81347 11.7735 5.1722 0 0 0 -1.65896 -2.54776 3.36465 -5.84385 
690 1 -0.636302 2.87947 11.7904 8.31398 0 0 0 -4.57633 -3.38669 0.18229 -6.83052 
491 1 -0.676989 1.05732 14.6093 9.97887 0 0 0 2.08574 7.16869 -3.28719 -6.8833 
39 1 -0.599247 3.41987 14.579 8.21295 0 0 0 -12.1968 0.133106 -2.21626 -6.68005 
956 3 -0.616265 2.42436 12.4348 10.8636 0 0 0 3.56326 -1.34591 -1.63824 -6.6709 
733 4 1.01074 0.90504 12.8589 13.7191 0 0 0 -0.280575 1.74205 -1.15086 -9.93299 
789 3 -0.544226 1.54274 13.1463 15.6832 0 0 0 5.88939 -5.53638 -4.48777 -7.37398 
2408 8 0.991133 1.06248 12.063 17.3661 0 0 0 -4.23665 -0.304286 0.0893014 -9.56066 
905 3 -0.575941 3.08729 12.698 13.3731 0 0 0 -2.3725 3.37479 0.105011 -6.83053 
832 4 0.930876 2.55839 14.3881 11.2984 0 0 0 0.915999 0.892039 0.941506 -10.484 
1136 3 -0.575367 1.04104 14.7493 13.2371 0 0 0 -2.58515 -1.978 -3.78036 -6.79161 
1235 3 -0.616552 3.23787 13.3208 17.8906 0 0 0 4.20469 -4.38873 -5.6785 -7.37728 
1060 3 -0.531352 2.54929 12.822 20.884 0 0 0 2.99604 2.56533 4.01034 -7.16926 
2260 8 0.934755 2.37924 14.1908 19.4613 0 0 0 2.07032 1.71766 0.218174 -9.33712 
2506 8 0.946359 0.83599 13.3867 21.9888 1 0 0 1.64599 -0.416855 2.58622 -9.42755 
2242 7 -0.567202 2.47303 13.5272 23.4569 0 0 0 -4.03438 -7.12117 2.95718 -7.33221 
1274 3 -0.61314 0.644922 13.0591 19.0477 0 0 0 -3.67794 6.38053 2.47496 -7.33211 
2570 8 1.00706 2.24408 11.3565 24.0655 0 0 0 2.46725 -2.4377 0.825569 -9.41092 
2453 7 -0.567243 0.466141 12.241 24.0696 0 0 0 -4.06104 -0.317665 0.780362 -7.26271 
2197 7 -0.506705 0.0747051 11.7437 21.4018 1 0 0 -0.939994 0.114565 -3.01206 -6.87271 
2709 9 -0.649319 0.777898 12.3245 28.8214 0 0 0 1.34514 -1.69217 1.73178 -7.45694 
2876 9 -0.590628 2.31894 12.8629 26.224 0 0 0 0.820904 -2.71717 1.82441 -7.38133 
2757 10 1.01313 1.17203 14.4765 24.8849 0 0 0 -0.575326 -1.16371 0.252854 -9.28176 
2727 10 1.0208 1.04317 11.6139 27.0611 0 0 0 -0.303534 -1.6395 0.872487 -9.63553 
2700 10 0.965565 2.69083 12.378 29.6868 0 0 0 0 0 0 -9.76571 
3056 9 -0.538486 0.496814 14.5286 26.9568 0 0 0 -6.24906 2.59075 2.45448 -7.3594 
3062 9 -0.624656 2.1947 14.4825 29.8338 0 0 0 0 0 0 -7.5566 
2752 10 0.927123 2.42815 14.7481 27.6609 0 0 0 -0.912963 -1.09139 -0.676595 -9.58488 
2979 9 -0.58828 3.20834 12.9336 33.1985 0 0 0 0 0 0 -6.35125 
2755 9 -0.601061 0.961334 12.9769 31.4267 0 0 0 0 0 0 -6.87693 
3083 10 0.920976 2.04105 14.2921 32.4858 0 0 0 0 0 0 -9.20992 
3194 9 -0.515236 0.330745 14.1644 33.6452 0 0 0 0 0 0 -5.93686 
3234 10 0.984441 2.81039 11.0885 32.5951 0 0 0 0 0 0 -9.50792 
1794 5 -0.498453 0.0641665 16.4951 -5.53735 0 0 0 0 0 0 -5.99754 
1660 5 -0.568024 2.5321 15.555 -7.05451 0 0 0 0 0 0 -5.33082 
1494 5 -0.5157 1.24775 17.7284 -8.24278 0 0 0 0 0 0 -4.67255 
1541 6 0.890839 0.928414 15.8993 -8.1644 0 0 0 0 0 0 -10.3634 
1868 6 0.967927 3.57735 17.2871 -7.26231 0 0 0 0 0 0 -11.9069 
1429 5 -0.608643 2.46718 18.2218 -5.89243 0 0 0 0 0 0 -5.49731 
1846 5 -0.559873 2.20588 15.3199 -4.18135 0 0 0 0 0 0 -5.93867 
2035 6 0.957753 1.45128 17.3016 -4.38656 0 0 0 0 0 0 -12.2924 
1513 5 -0.686181 3.2174 17.5737 -3.29097 0 0 0 0 0 0 -5.42668 
1867 6 0.976587 3.45882 15.6153 -2.53379 0 0 0 0 0 0 -12.2055 
1890 5 -0.676183 0.50925 17.8619 -2.34134 0 0 0 0 0 0 -5.4713 
1813 5 -0.643061 3.21819 16.8702 -0.757449 0 0 0 0 0 0 -5.51087 
1978 5 -0.586401 0.981715 15.4507 -1.62043 0 0 0 0 0 0 -5.51207 
311 2 0.604097 2.36042 15.1824 -0.07274 0 0 0 1.03307 -0.807044 0.357524 -10.6227 
77 1 -0.691496 1.68613 17.3391 2.06629 0 0 0 4.13523 -5.52351 6.73111 -5.89392 
2050 6 0.935034 2.30968 18.3207 -1.79829 0 0 0 0 0 0 -11.8563 
147 2 0.656329 1.86997 18.1661 3.85331 0 0 0 0.806356 0.46239 2.31651 -10.523 
360 2 0.669339 1.87706 15.4528 2.84498 0 0 0 -1.6448 -2.92063 0.566758 -10.5189 
466 2 0.670921 3.58501 17.8108 1.38358 0 0 0 -2.65536 0.425818 0.541823 -10.9481 
256 1 -0.653931 3.36778 16.3035 3.99304 0 0 0 3.33663 4.70823 -2.8039 -6.15384 
653 2 0.65601 0.745817 18.3771 0.539311 0 0 0 -0.616034 0.722463 -0.902141 -10.8824 
609 1 -0.648062 1.6967 14.9547 6.10379 0 0 0 6.46681 2.0573 0.272874 -6.54458 
243 2 0.654472 3.16525 16.5598 6.38939 0 0 0 1.94702 1.40079 0.987675 -10.6567 
637 1 -0.582312 0.358522 18.0365 5.66233 0 0 0 1.98501 0.84656 -4.72226 -6.70193 
837 4 0.799996 1.1474 15.4789 8.1498 0 0 0 -1.9111 -0.213686 -0.641608 -10.5056 
790 3 -0.61352 2.71533 16.5406 10.6493 0 0 0 5.14424 -5.76145 -3.9117 -6.77917 
588 1 -0.594302 1.78163 17.5132 7.87912 1 0 0 5.57285 7.80856 0.0885893 -6.6945 
1268 4 0.937111 1.90193 18.144 9.86415 0 0 0 0.589658 -0.914301 1.82046 -10.7824 
499 2 0.67257 0.0282187 16.0011 5.36947 0 0 0 -1.38739 -0.548924 0.160858 -10.6857 
1346 4 1.00118 0.852469 16.5867 13.1053 0 0 0 0.789352 1.15844 -0.0382137 -10.0327 
725 3 -0.670208 0.643704 17.984 11.7295 0 0 0 -1.81064 6.985 -3.50286 -7.01333 
1275 3 -0.667367 1.28337 16.699 15.116 0 0 0 5.35743 1.66426 2.22947 -7.488 
906 3 -0.56457 3.4488 15.3964 12.9557 0 0 0 -1.27583 -2.60937 -2.15317 -6.56011 
1034 3 -0.600483 2.85166 18.0828 13.2088 0 0 0 -1.69179 1.50282 0.384533 -7.47033 
2212 8 1.04509 2.98688 17.7885 15.2909 0 0 0 -1.30525 0.791453 -1.8747 -9.46238 
2271 8 0.965604 1.83721 15.0164 16.1122 0 0 0 1.09943 -0.815925 -3.00427 -9.51972 
759 3 -0.556065 2.44974 18.3989 16.9598 0 0 0 -0.240625 4.85164 3.5905 -7.06403 
1142 3 -0.61774 3.68051 15.3998 15.5065 0 0 0 0.754098 4.21639 2.30924 -7.46839 
876 3 -0.553062 0.191001 15.0726 17.0952 1 0 0 1.36694 -1.15409 3.21158 -7.22921 
2614 7 -0.637041 3.09642 17.4476 22.9231 0 0 0 1.08584 -3.63235 4.27405 -7.56522 
2509 8 1.04223 1.99426 17.4463 18.7967 0 0 0 -0.78614 0.591724 0.77417 -9.26357 
2529 7 -0.568874 1.33826 15.6896 23.2322 0 0 0 0.321858 3.26057 -3.30682 -7.21874 
2201 8 1.00684 3.28411 15.6336 22.2836 0 0 0 -1.42106 1.19894 -0.493825 -9.56417 
1109 3 -0.639301 2.54011 15.8363 17.9995 0 0 0 -3.84819 -0.406286 -7.12627 -7.49902 
2420 7 -0.505624 1.42037 17.9579 20.731 0 0 0 3.42385 -0.743881 -0.516543 -7.31186 
1186 3 -0.626802 1.32935 15.334 20.4716 0 0 0 -0.957873 4.78355 -1.9156 -7.53524 
2566 8 1.00766 1.70117 17.9873 24.2241 0 0 0 -2.18776 1.28999 -0.644329 -9.46289 
2440 7 -0.649452 0.16303 17.9902 23.0771 1 0 0 2.25066 -2.28578 1.34373 -7.32048 
915 3 -0.61356 0.0529072 17.6464 17.8945 0 0 0 0.809781 8.14374 4.9001 -7.53536 
2513 8 1.03682 0.038853 16.4444 21.7026 0 0 0 -0.519681 1.34917 -0.034034 -9.4712 
3096 9 -0.488957 2.96939 15.4105 25.7406 0 0 0 0.410197 2.22193 4.56133 -7.22055 
2645 9 -0.58537 1.49432 17.0312 28.0001 0 0 0 -1.31973 -0.86289 -2.31968 -7.20457 
2710 9 -0.533717 0.471833 17.0399 25.5631 0 0 0 -3.49591 -2.58765 -5.1103 -7.21465 
2729 9 -0.646386 2.71083 17.4724 30.2958 0 0 0 0 0 0 -6.85926 
2663 9 -0.657874 2.8531 18.2003 25.8142 0 0 0 -2.38517 1.69956 -3.56965 -7.69871 
3251 10 1.00641 1.06661 16.6491 29.982 0 0 0 0 0 0 -9.86327 
2779 10 1.01592 3.51239 17.7839 28.3458 0 0 0 0 0 0 -9.96123 
3029 9 -0.514504 3.44868 15.6094 32.242 0 0 0 0 0 0 -6.51287 
3106 9 -0.629399 0.52138 16.2632 31.8065 0 0 0 0 0 0 -7.38898 
3158 10 0.816601 0.315799 18.1961 32.4367 1 0 0 0 0 0 -8.63968 
3266 10 0.895253 3.662 18.3956 31.6653 0 0 0 0 0 0 -9.19246 
1972 6 1.03529 0.887885 19.2024 -7.0092 0 0 0 0 0 0 -12.0343 
1967 5 -0.588616 2.06988 20.8131 -6.40046 0 0 0 0 0 0 -5.60823 
1979 5 -0.552673 0.528854 19.2888 -4.62812 0 0 0 0 0 0 -5.75068 
1811 5 -0.278085 0.69663 20.3668 -8.59578 0 0 0 0 0 0 -3.72308 
1447 5 -0.444584 3.60054 18.9355 -8.3861 0 0 0 0 0 0 -4.57699 
1658 6 0.983157 2.04404 20.7281 -4.37171 0 0 0 0 0 0 -12.2431 
1619 5 -0.673211 1.99672 20.1244 -2.38092 0 0 0 0 0 0 -5.51134 
103 1 -0.561283 1.5413 20.1346 3.2485 0 0 0 -0.727117 2.40968 9.14062 -6.3081 
1918 6 1.03839 2.04676 21.6466 -1.14409 0 0 0 0 0 0 -12.4551 
1435 5 -0.634361 0.0227753 21.8259 -1.77234 0 0 0 0 0 0 -5.69017 
208 1 -0.611748 2.07048 21.7919 0.851959 0 0 0 -0.346465 0.595918 -0.245689 -5.62562 
260 1 -0.587043 2.6404 19.2989 0.211971 0 0 0 -0.104905 2.81257 1.333 -5.9124 
407 2 0.65715 3.51708 20.8114 3.78914 0 0 0 1.62241 -1.45472 0.859534 -10.5178 
280 2 0.679041 0.377941 21.4041 1.84494 0 0 0 -0.0358255 -0.0543016 -0.749554 -11.0795 
263 2 0.729378 1.69574 19.6082 6.80219 1 0 0 -0.370738 2.30405 0.476322 -10.89 
1396 4 0.892413 0.625565 21.5144 9.05486 0 0 0 -0.971641 -0.656764 -1.84503 -10.4197 
532 1 -0.644674 0.885934 21.1321 5.92967 0 0 0 -0.885113 -5.4547 1.81354 -6.14139 
879 4 0.866774 3.33934 20.951 9.90521 0 0 0 -1.74749 0.338568 -2.70932 -10.3741 
834 3 -0.588519 3.2137 20.4309 8.0414 0 0 0 1.11561 5.18813 -3.81479 -6.87741 
1263 3 -0.587928 1.39077 20.0593 10.3828 0 0 0 -0.591844 -0.938136 -0.841243 -6.78448 
590 1 -0.595937 -0.021594 19.868 8.15901 0 0 0 -7.44061 4.46079 -2.52711 -6.41141 
131 1 -0.648158 3.08135 18.6089 5.56174 0 0 0 3.35137 4.20246 5.94759 -6.49023 
786 3 -0.52876 3.27345 20.9881 16.5401 0 0 0 -2.13012 3.48894 -0.730602 -7.00252 
1283 4 0.970529 3.36936 21.8421 14.6688 0 0 0 -2.82099 -2.3508 -0.865006 -9.72086 
912 3 -0.648006 2.73533 21.2217 12.6686 0 0 0 -3.13078 1.02698 3.98319 -7.4685 
1328 3 -0.548935 1.55323 19.7648 14.7398 1 0 0 -1.54079 -1.91071 -0.944533 -7.11901 
954 4 1.0086 1.68513 19.6451 12.751 0 0 0 -0.23006 0.79369 -0.517003 -10.0108 
1214 4 1.02573 1.31526 20.0891 16.769 0 0 0 0.671811 -0.620106 -0.824828 -9.4071 
2494 7 -0.609047 1.06378 21.5146 20.9357 0 0 0 5.36174 -0.23943 -2.79932 -7.69809 
2390 8 0.9936 3.03996 21.5272 23.3062 0 0 0 3.44413 -2.00597 -0.387185 -9.45872 
2474 7 -0.617117 3.1252 20.0287 21.7611 0 0 0 2.33143 -4.87083 1.14428 -7.52352 
2305 8 0.969682 0.691472 19.69 21.8574 0 0 0 1.39184 -0.740773 -1.47713 -9.65453 
2182 8 0.98771 2.97168 20.3624 19.7587 0 0 0 -0.771084 -1.27683 2.21686 -9.359 
2208 7 -0.617262 1.64614 20.0282 23.8375 0 0 0 0.04331 -3.23895 -1.36169 -7.38556 
815 3 -0.590088 1.16769 19.9067 18.7822 0 0 0 -0.908473 -3.55601 2.28992 -7.37926 
2187 7 -0.430341 3.6471 18.6318 19.38 0 0 0 -0.749178 5.17143 3.30454 -6.84978 
2636 8 0.953448 0.0401951 21.686 19.1416 1 0 0 0.480869 -1.59426 -1.24726 -9.50057 
3175 9 -0.661679 3.29934 21.1657 30.7938 0 0 0 0 0 0 -7.73006 
2874 10 0.906514 1.4459 19.881 30.1297 0 0 0 0 0 0 -9.67282 
2706 9 -0.596772 0.917301 21.6906 29.8939 0 0 0 0 0 0 -7.14595 
2799 10 0.988235 3.30796 20.0931 26.121 0 0 0 1.08468 -0.411141 -0.913052 -9.48911 
3027 9 -0.617585 1.21639 20.4506 26.391 0 0 0 1.19843 -5.67813 -0.208252 -7.04374 
3183 9 -0.610609 2.30294 19.3681 28.4414 0 0 0 -0.808196 2.07156 1.14791 -7.2778 
2754 9 -0.483411 3.14233 21.9901 25.4336 0 0 0 -4.70228 -1.51385 -5.6733 -6.98553 
3316 10 0.980988 0.740922 21.8911 27.8409 0 0 0 1.09629 0.679149 0.00655314 -9.52647 
3188 10 0.964616 0.583267 18.7612 27.0623 0 0 0 -0.928958 1.51537 -0.529038 -9.63537 
3195 9 -0.611475 0.0548017 18.5719 30.2141 0 0 0 0 0 0 -7.39166 
2341 8 1.03608 0.00177449 21.1128 24.7062 1 0 0 0.431023 1.17502 -0.142873 -9.60779 
3164 9 -0.571888 2.6995 22.0265 28.1117 0 0 0 -5.56866 -9.90678 7.85723 -7.20952 
2835 9 -0.673703 1.94573 19.1542 32.1451 0 0 0 0 0 0 -7.17751 
3134 10 0.928355 2.38458 21.2792 32.5699 0 0 0 0 0 0 -9.00921 
2651 9 -0.591209 0.50094 21.4801 32.7366 0 0 0 0 0 0 -6.78049 
1948 5 -0.590949 1.19828 24.6937 -5.78399 0 0 0 0 0 0 -5.59803 
2100 6 1.00282 0.556841 22.8024 -6.47164 0 0 0 0 0 0 -11.9754 
1538 5 -0.456685 2.10119 23.0294 -7.73334 0 0 0 0 0 0 -4.69528 
1646 5 -0.520759 2.98985 25.5561 -7.62704 0 0 0 0 0 0 -4.8541 
1616 5 -0.602557 3.58099 23.3885 -5.14788 0 0 0 0 0 0 -5.45362 
1490 5 -0.558065 1.13579 22.4727 -4.34833 0 0 0 0 0 0 -5.78092 
1849 6 1.05818 2.2648 24.1391 -3.93767 0 0 0 0 0 0 -12.5543 
2102 5 -0.608099 1.02884 25.5249 -3.3119 0 0 0 0 0 0 -5.52037 
2006 5 -0.607939 0.870978 25.1692 -0.832466 0 0 0 0 0 0 -5.0318 
251 2 0.727849 2.69309 23.3198 2.09107 0 0 0 0.333234 -1.25479 0.956734 -10.9551 
1987 6 1.01885 2.9154 25.0384 -1.21695 0 0 0 0 0 0 -12.4374 
1959 5 -0.587131 2.28935 23.2903 -2.00933 0 0 0 0 0 0 -5.26404 
167 1 -0.649543 2.65353 24.9391 1.0792 0 0 0 7.2268 -3.39221 -1.44994 -5.69907 
363 1 -0.590235 1.78302 22.9318 3.72958 0 0 0 -2.92175 -5.62373 3.19976 -6.04453 
303 2 0.722944 -0.000822014 23.922 3.70418 0 0 0 -0.332692 0.506521 0.543144 -11.25 
478 2 0.694103 2.60313 25.7584 4.13436 0 0 0 0.39084 2.43319 -0.41585 -11.0472 
126 2 0.738125 0.641741 25.6313 1.1026 0 0 0 -0.784611 1.76312 0.771746 -11.7429 
432 1 -0.64569 3.30875 24.2727 5.47173 0 0 0 5.24551 -7.12467 -1.71766 -6.09978 
942 3 -0.645164 1.85295 22.7329 10.2944 0 0 0 3.73362 -3.08657 -1.52442 -6.99622 
1376 3 -0.532229 1.92463 25.6201 10.5984 0 0 0 -5.83266 0.84532 0.0997555 -6.99308 
944 4 0.922418 2.69446 24.072 8.97868 0 0 0 1.48377 -0.328458 -0.605082 -10.8799 
439 1 -0.649923 2.77699 25.7439 7.86459 0 0 0 4.78967 -5.92458 3.63889 -6.33649 
1018 4 0.891082 1.07038 25.2596 6.96224 0 0 0 -0.0242175 0.554776 0.804222 -10.7464 
17 1 -0.597654 1.71206 22.9716 7.63832 0 0 0 0.536409 -2.6433 1.69229 -6.23643 
603 2 0.741637 2.44438 22.5004 5.81562 0 0 0 1.0033 -1.33472 -0.0792779 -11.103 
141 1 -0.676908 0.0364273 24.2371 5.80912 0 0 0 -1.89307 -5.44285 1.9629 -6.32656 
1320 3 -0.692773 1.89739 25.5382 15.4577 0 0 0 -3.46797 1.2203 -4.20859 -7.57414 
1244 3 -0.624429 1.7174 24.1736 12.9497 0 0 0 -2.0683 4.48358 -3.20608 -6.94089 
1145 4 0.932564 2.90744 23.1469 11.9296 0 0 0 1.29601 2.41814 0.182888 -10.0138 
973 4 1.02692 0.782878 25.6148 13.8562 0 0 0 1.17428 1.2201 -0.591451 -9.7831 
1398 3 -0.573109 1.59641 22.6932 15.1065 0 0 0 2.61977 -0.296389 2.69668 -7.27769 
2422 8 1.04051 1.54648 23.9892 16.7408 0 0 0 -1.32426 -1.68741 -0.665237 -9.38467 
1337 4 0.974222 0.235432 22.6567 13.6221 1 0 0 -0.086715 0.974332 -1.94865 -9.68432 
2222 7 -0.492668 0.493469 22.2076 17.2693 1 0 0 1.54131 -7.01385 2.15281 -6.88525 
843 4 0.944087 3.66014 25.2695 14.4855 0 0 0 -2.56946 0.0164026 1.18131 -9.93583 
2862 9 -0.532234 1.2025 25.2349 24.1235 0 0 0 -0.849739 -1.7983 -8.78345 -6.91747 
1324 3 -0.559608 2.50081 25.0419 18.1176 0 0 0 -0.416295 -5.531 -0.616605 -7.4681 
2512 8 0.99183 2.49436 23.7593 19.9867 0 0 0 -1.77394 0.0727262 0.743109 -9.62352 
2586 8 1.00463 2.70052 24.8397 22.9285 0 0 0 1.24286 -3.28209 -0.143955 -9.37007 
2144 7 -0.587606 3.3284 22.9991 21.7537 0 0 0 2.42713 4.86309 1.141 -7.60642 
2427 7 -0.501603 1.2258 22.5489 23.5785 0 0 0 3.77663 1.44016 1.40502 -7.20917 
2258 7 -0.606573 1.1221 24.4947 21.5504 0 0 0 -2.67261 0.883223 -1.5064 -7.1835 
2605 7 -0.55801 0.260051 23.7489 19.3863 0 0 0 7.48891 -0.538055 2.82445 -7.24797 
1255 3 -0.620889 2.63591 22.2507 18.77 0 0 0 2.58293 -4.55749 1.38739 -7.40569 
2199 7 -0.577335 3.22186 25.7077 20.8003 0 0 0 -3.02704 1.87776 -1.64425 -7.28476 
3279 9 -0.583784 3.52636 24.5284 25.2545 0 0 0 -1.43234 5.45158 -0.538587 -7.46331 
3065 10 0.946233 2.23448 23.2156 30.1036 0 0 0 0 0 0 -9.69215 
3294 9 -0.556801 2.3998 24.6528 27.7811 0 0 0 0 0 0 -7.55041 
2938 10 0.925889 0.981191 24.7045 26.037 0 0 0 0.867459 -0.343383 -0.00167918 -9.17954 
3318 9 -0.635043 0.917354 24.5687 30.415 0 0 0 0 0 0 -7.46146 
2739 9 -0.607484 0.142887 22.7512 25.9759 1 0 0 -5.03365 -7.45803 -0.807306 -7.54246 
3222 9 -0.593968 2.39243 23.4022 32.4246 0 0 0 0 0 0 -6.99001 
3257 10 0.904284 0.341197 23.9233 32.3636 1 0 0 0 0 0 -9.3475 
1464 6 0.985429 1.82063 28.8039 -5.30082 0 0 0 0 0 0 -12.2713 
2080 5 -0.517352 2.03555 27.8832 -6.97495 0 0 0 0 0 0 -5.26905 
1474 5 -0.553004 0.256128 27.2375 -5.26244 0 0 0 0 0 0 -5.69102 
1722 6 0.94837 1.08217 26.0947 -7.20737 0 0 0 0 0 0 -11.0055 
2078 5 -0.521521 3.53678 26.4539 -5.07638 0 0 0 0 0 0 -5.68984 
2024 5 -0.608777 2.03505 28.1748 -3.27404 0 0 0 0 0 0 -5.89143 
1434 5 -0.594181 0.52722 27.7276 -0.180191 0 0 0 0 0 0 -5.74095 
531 2 0.668103 1.66454 28.5946 3.0744 0 -1 0 1.33478 -1.03233 0.248224 -10.8715 
2028 5 -0.633101 2.98671 26.9334 -0.88299 0 0 0 0 0 0 -5.31476 
1677 6 1.01799 0.65411 27.1396 -2.18933 0 0 0 0 0 0 -12.7476 
1518 6 0.972665 2.43149 28.8091 -0.143219 0 0 0 0 0 0 -12.2876 
656 1 -0.750529 3.05023 28.4006 1.65315 0 -1 0 1.80241 -1.4544 -1.50851 -5.68528 
5 1 -0.662889 0.865624 26.006 3.05797 0 0 0 -2.51071 3.15439 4.4202 -6.26187 
272 2 0.703656 3.66784 26.6036 1.35453 0 0 0 1.86627 0.622374 0.604382 -11.1807 