ITEM: TIMESTEP
1500000
ITEM: NUMBER OF ATOMS
3344
ITEM: BOX BOUNDS pp pp ff
0.0000000000000000e+00 2.9565597895300002e+01
0.0000000000000000e+00 2.9545719921200000e+01
-8.8921683279000003e+00 4.4289169250699999e+01
ITEM: ATOMS id type q x y z ix iy iz vx vy vz v_Ocoord v_Mcoord v_Tacoord v_Hfcoord c_ncoord[11] c_locpot[1] c_locpot[2] v_vtemp2 
1916 5 -0.675688 0.565397 1.81354 -5.14473 0 0 0 0 0 0 2 4 4 0 6 1 0 0 
2060 6 0.935589 0.439399 0.297219 -6.42671 0 0 0 0 0 0 6 0 0 0 6 1 0 0 
996 3 -0.679375 0.60944 1.72136 12.1772 0 0 0 -4.34887 2.58288 3.80848 3 5 5 0 8 0 0 257.133 
3132 9 -0.298008 0.679753 1.42961 29.1746 0 0 0 0 0 0 3 2 2 0 5 -0.99997 7.48401e-05 0 
2550 7 -0.461007 0.0426442 1.39829 24.911 1 1 0 -2.9316 4.40109 -4.46079 8 2 2 0 10 0 0 306.996 
676 2 0.0942608 1.4695 0.686094 2.02231 0 0 0 -0.0253246 -1.72365 2.13519 1 2 0 2 3 0.999949 7.59516e-07 538.877 
446 2 0.498745 1.27915 0.923477 5.43929 0 0 0 -2.47813 -0.332382 -1.17441 5 0 0 0 5 0.999897 1.55795e-06 546.047 
347 1 -0.704341 0.988914 0.535169 9.31203 0 0 0 1.08289 4.55204 0.497015 2 4 4 0 6 0 0 142.013 
2628 8 1.09174 0.960057 0.849619 15.8935 0 0 0 0.602363 -0.984196 -0.76692 7 0 0 0 7 0 0 139.26 
3260 9 -0.585872 1.31052 0.751809 31.9011 0 0 0 0 0 0 3 3 3 0 6 -1 0 0 
1964 5 -0.574504 2.09889 0.635642 -7.3032 0 0 0 0 0 0 5 3 3 0 8 1 0 0 
1568 6 0.985725 2.40983 1.47782 -3.96776 0 0 0 0 0 0 6 0 0 0 6 1 -3.81936e-07 0 
2094 6 0.588829 1.88086 1.48603 -0.680391 0 0 0 0 0 0 3 1 0 1 4 0.999989 1.53882e-07 0 
2580 8 1.02062 2.40942 1.61264 12.6876 0 0 0 0.423759 1.41401 -0.356991 6 0 0 0 6 0 0 167.319 
1219 3 -0.646456 2.19559 1.75965 14.6859 1 0 0 -2.99956 1.48162 2.71328 4 4 4 0 8 0 0 119.011 
2194 9 -0.392359 1.89032 0.329285 22.1353 0 1 0 -2.71405 2.64417 -0.514075 8 3 3 0 11 -0.998608 -1.47376e-05 93.7874 
2784 10 0.96979 2.12342 0.27928 30.1509 0 0 0 0 0 0 7 0 0 0 7 -0.999999 2.81257e-06 0 
2558 9 -0.275529 2.36007 0.333038 24.769 0 1 0 -0.836531 3.52096 -8.48304 9 1 1 0 10 -0.999049 -9.75964e-06 545.578 
1308 4 0.656186 3.2687 0.283266 7.56576 0 1 0 1.17443 1.11585 0.196244 5 1 1 0 6 0.999873 1.88885e-06 193.179 
639 1 -0.638555 3.14743 0.945098 10.5772 0 1 0 -0.244072 -1.72276 -3.00213 4 4 4 0 8 0 0 77.2278 
691 1 -0.652153 3.10861 0.151242 5.39426 0 1 0 1.29514 1.33015 -2.66336 1 5 2 3 6 0 0 67.6061 
2328 10 1.30712 2.83569 0.0214821 18.4227 0 1 0 -2.29789 -1.89788 2.12995 8 0 0 0 8 -0.992989 -8.01972e-05 973.468 
3315 9 -0.204858 3.1236 0.731628 28.4883 0 0 0 0 0 0 7 2 2 0 9 -0.999938 0.000155495 0 
3061 9 -0.450818 3.45108 0.783091 33.7918 0 0 0 0 0 0 2 2 2 0 4 -1 0 0 
2042 5 -0.628138 3.88143 0.542646 -5.37079 0 0 0 0 0 0 6 4 4 0 10 1 -6.20763e-09 0 
1505 6 0.995808 3.73506 1.79056 -6.98584 0 0 0 0 0 0 6 0 0 0 6 1 0 0 
1747 5 -0.574438 4.24191 1.20972 -2.94474 0 0 0 0 0 0 5 3 3 0 8 0.999998 -6.07522e-06 0 
685 2 0.165025 4.16823 1.21828 1.14672 0 0 0 -0.785342 1.93653 -1.54896 1 0 0 0 1 0.999968 4.53045e-07 484.174 
568 2 0.502593 4.49727 1.5814 4.95984 0 0 0 -1.89219 2.40896 0.580935 4 1 0 1 5 0.999887 1.66625e-06 695.613 
748 3 -0.600983 4.53334 0.249643 15.0051 0 1 0 4.45477 -3.6604 -4.39039 5 3 3 0 8 0 0 336.864 
1212 3 -0.717048 4.1265 1.27322 17.5997 0 0 0 4.42992 -6.99986 -1.40797 6 4 4 0 10 0 0 452.867 
2400 9 -0.358827 4.06134 1.37119 22.8287 0 0 0 -2.11918 -3.6464 -0.755072 7 2 2 0 9 -0.998825 -1.21408e-05 117.746 
3319 9 -0.618613 3.97762 0.122441 31.2829 0 0 0 0 0 0 5 5 5 0 10 -1 2.17842e-08 0 
3048 10 0.929077 4.18657 1.84405 32.4339 0 0 0 0 0 0 7 0 0 0 7 -1 0 0 
1444 5 -0.456186 4.98526 0.995303 -8.33165 0 0 0 0 0 0 2 2 2 0 4 1 0 0 
3053 9 -0.139514 4.67301 0.711417 26.0736 0 0 0 4.01538 3.51556 -6.08821 8 1 1 0 9 -0.999312 -6.96297e-06 420.438 
1765 6 0.983044 5.6873 1.27875 -4.40744 0 0 0 0 0 0 7 0 0 0 7 1 -3.40952e-07 0 
53 2 0.652617 6.18765 0.257764 8.46401 0 0 0 1.85602 -0.920852 -0.289584 5 0 0 0 5 0 0 313.183 
20 1 -0.656143 5.54676 0.568871 6.61814 0 0 0 -2.90052 1.67938 1.34737 4 6 2 4 10 0 0 83.6964 
2462 8 0.996565 5.74104 0.534462 13.4967 0 1 0 0.517916 -2.52599 0.458486 7 0 0 0 7 0 0 497.585 
65 1 -0.687889 6.3661 0.958185 11.6235 0 1 0 -7.49795 -2.8568 -3.81952 5 4 4 0 9 0 0 506.519 
2452 10 1.24146 5.80612 1.26103 18.6475 0 0 0 0.959004 0.284306 0.374818 7 0 0 0 7 -0.993135 -7.57523e-05 82.7735 
2981 10 1.025 5.56077 0.658066 29.5097 0 0 0 0 0 0 7 0 0 0 7 -0.999985 3.83748e-05 0 
2871 9 -0.445283 6.215 0.614961 32.9195 0 0 0 0 0 0 2 3 3 0 5 -1 0 0 
1655 5 -0.605968 6.71174 0.832704 -1.31394 0 0 0 0 0 0 2 4 3 1 6 0.999987 1.70066e-07 0 
419 2 0.375164 6.56628 0.160681 3.41761 0 1 0 0.526401 0.298991 -1.02246 3 0 0 0 3 0.999911 1.24312e-06 101.035 
2412 8 1.01981 7.20349 1.45106 15.9687 0 0 0 0.248895 1.35278 2.82448 8 0 0 0 8 0 0 715.986 
1347 3 -0.693495 6.4921 0.0710412 17.1658 0 1 0 4.15357 1.12795 3.01893 6 4 4 0 10 0 0 177.276 
2226 9 -0.560944 6.47084 1.77944 21.9589 0 0 0 2.65008 3.9614 0.573189 8 4 4 0 12 -0.998605 -1.4362e-05 147.808 
1457 5 -0.470295 7.63017 1.51366 -7.75955 0 0 0 0 0 0 4 2 2 0 6 1 0 0 
1720 5 -0.614574 7.72777 1.64954 -4.36983 0 0 0 0 0 0 4 4 4 0 8 1 -4.19072e-07 0 
490 2 0.645832 7.48042 1.1551 6.05518 0 0 0 -0.42737 0.264602 0.962748 5 0 0 0 5 0 0 84.4058 
740 3 -0.572891 7.8301 1.45433 13.8365 0 1 0 0.607537 2.14988 0.534093 7 4 4 0 11 0 0 33.8432 
1240 3 -0.715634 8.01321 0.0678815 22.7783 0 1 0 0.798544 1.83567 -5.82069 8 4 4 0 12 0 0 243.017 
3091 9 -0.314107 7.83876 0.749572 28.4887 0 0 0 0 0 0 6 3 3 0 9 -0.999953 0.000117931 0 
2184 9 -0.369875 7.54503 1.77511 24.4576 0 1 0 2.63938 -1.72469 2.43501 9 3 3 0 12 -0.999012 -9.77319e-06 101.793 
1875 5 -0.623897 9.10952 0.014567 -6.25204 0 0 0 0 0 0 5 3 3 0 8 1 0 0 
2008 6 0.542151 8.91277 1.19651 -0.834599 0 0 0 0 0 0 3 2 0 2 5 0.99999 1.38979e-07 0 
155 1 -0.694174 8.48893 1.58627 9.787 0 0 0 2.39649 -2.82422 -4.61433 1 5 5 0 6 0 0 224.568 
396 1 -0.686816 8.35944 0.0298868 4.65559 0 1 0 0.484905 7.6938 -1.25266 1 6 1 5 7 0 0 391.254 
1194 3 -0.594215 9.09919 0.151573 15.9297 0 0 0 6.35075 0.373144 4.06604 7 5 5 0 12 0 0 365.631 
1168 3 -0.655665 8.42392 1.45264 17.8286 0 0 0 -2.67358 2.95999 1.09332 8 5 5 0 13 0 0 109.713 
735 3 -0.543921 8.4143 0.45391 20.2383 0 1 0 -2.39487 1.40028 -2.99799 8 5 5 0 13 0 0 107.014 
3199 10 1.00183 9.05238 0.700276 30.1712 0 0 0 0 0 0 6 0 0 0 6 -1 2.05064e-09 0 
2936 9 -0.652464 8.41326 1.46339 31.7808 0 0 0 0 0 0 6 4 4 0 10 -1 0 0 
1486 5 -0.643575 9.27255 0.356614 -2.53512 0 0 0 0 0 0 5 4 4 0 9 0.999998 -5.22709e-06 0 
33 2 0.201844 9.37996 1.29146 2.67718 0 0 0 0.456298 2.39142 -0.864768 2 1 1 0 3 0.999905 1.45307e-06 477.646 
1061 4 0.929289 9.55652 0.515449 8.35868 0 0 0 -0.319713 -0.460764 -0.0975548 6 0 0 0 6 0 0 23.507 
255 1 -0.614918 9.64519 0.563434 12.1643 0 1 0 -4.5847 0.0847206 -5.65052 4 5 5 0 9 0 0 339.66 
2613 8 1.02333 10.1503 1.79724 16.5882 0 0 0 0.543706 -1.62294 0.582725 7 0 0 0 7 0 0 237.157 
951 3 -0.586118 9.8849 1.40522 23.5259 0 0 0 -2.19098 -1.69135 7.24938 8 3 3 0 11 0 0 386.224 
2135 7 -0.274572 9.54975 0.726985 25.9989 0 0 0 0.252088 0.441453 3.2837 8 1 1 0 9 0 0 70.819 
2702 9 -0.446183 9.94437 0.268895 33.4083 0 0 0 0 0 0 3 3 3 0 6 -1 0 0 
1675 5 -0.439783 10.3041 0.804316 -8.66604 0 0 0 0 0 0 3 2 2 0 5 1 0 0 
1781 5 -0.621177 10.6491 1.72359 -4.86992 0 0 0 0 0 0 6 4 4 0 10 1 -4.04907e-09 0 
43 2 0.492715 10.4145 0.817886 5.40314 0 1 0 -1.2254 0.827951 -1.82827 6 0 0 0 6 0.99983 2.87554e-06 395.693 
1952 6 0.990398 11.9793 0.109213 -5.38418 0 0 0 0 0 0 6 0 0 0 6 1 0 0 
1685 5 -0.644965 11.7952 0.419201 -2.06125 0 0 0 0 0 0 6 4 3 1 10 0.999997 -7.58178e-06 0 
616 1 -0.682386 11.2556 1.07162 9.41682 0 0 0 -7.27806 1.45629 0.107524 3 6 6 0 9 0 0 353.434 
948 4 1.01046 11.8765 1.19555 13.3865 0 0 0 0.850362 1.35598 -0.122774 7 0 0 0 7 0 0 186.938 
415 1 -0.596899 11.7743 0.753169 16.6714 0 1 0 3.86167 0.297518 -7.27818 3 3 3 0 6 0 0 435.987 
2741 10 1.19448 11.8069 1.43747 23.5524 0 0 0 0.185578 -0.125922 0.308688 7 0 0 0 7 -0.998627 -1.28316e-05 10.5613 
2142 10 1.2879 11.4241 1.09188 20.0608 0 0 0 0.371556 0.81567 -0.559214 7 0 0 0 7 -0.997126 -2.70359e-05 80.966 
2834 9 0.00278758 11.9356 1.21605 27.041 0 0 0 7.73151 0.108847 -3.8355 9 0 0 0 9 -0.99956 -4.06139e-06 477.847 
1618 5 -0.630818 12.423 1.59185 -6.77081 0 0 0 0 0 0 5 3 3 0 8 1 0 0 
1589 6 0.743242 12.128 0.884716 -8.43919 0 0 0 0 0 0 3 0 0 0 3 1 0 0 
135 2 0.509975 12.4905 0.936139 -0.271834 0 0 0 0 0 0 4 3 0 3 7 0.999987 1.92105e-07 0 
1279 4 0.814786 12.5358 0.386736 7.79683 0 1 0 -1.17557 -0.498651 1.11094 5 0 0 0 5 0 0 207.826 
619 1 -0.661052 12.3618 1.22597 5.95089 0 1 0 3.65756 1.57001 1.31305 1 4 3 1 5 0 0 112.676 
3329 10 1.05809 12.4159 1.62106 31.2252 0 0 0 0 0 0 6 0 0 0 6 -1 0 0 
1725 5 -0.631602 13.522 1.03746 -3.95826 0 0 0 0 0 0 4 4 4 0 8 1 -1.16209e-07 0 
885 4 0.442259 13.6264 0.380087 4.61297 0 0 0 -1.79084 0.256714 -0.21433 4 4 2 2 8 0.999897 1.60353e-06 240.77 
2591 10 1.17756 13.5079 1.4171 16.1482 0 0 0 -0.321348 -0.133439 -0.833565 7 0 0 0 7 -0.971958 -0.000298313 59.189 
1036 3 -0.685692 13.7833 0.423835 14.3805 0 0 0 -6.50296 4.93752 -3.46769 5 4 4 0 9 0 0 504.744 
3278 9 -0.158008 13.2838 1.51978 24.8967 0 0 0 -0.185653 -0.00835554 -4.9668 9 1 1 0 10 -0.998906 -1.02088e-05 158.453 
2972 9 -0.380415 13.274 1.34725 29.3302 0 0 0 0 0 0 7 3 3 0 10 -0.999968 8.01052e-05 0 
1478 5 -0.63534 14.6219 0.32326 -7.01123 0 0 0 0 0 0 4 3 3 0 7 1 0 0 
11 2 0.19875 14.2855 0.00137045 1.60294 0 0 0 0.679402 -0.942026 -0.283921 2 4 0 4 6 0.999952 7.4227e-07 102.3 
386 1 -0.621612 14.6456 0.60299 10.5148 0 1 0 -3.98871 4.27073 -2.3128 5 5 5 0 10 0 0 253.345 
2129 10 1.1959 14.3876 0.801542 21.8 0 0 0 -0.455876 -0.250616 -0.0888903 7 0 0 0 7 -0.997206 -2.72826e-05 20.2059 
2347 10 1.27379 14.7754 0.443905 18.938 0 1 0 -0.426805 -0.739238 -1.3129 7 0 0 0 7 -0.990049 -0.00010317 177.904 
2694 9 -0.150767 14.5267 0.723107 27.212 0 0 0 7.51391 2.2471 4.05985 9 1 1 0 10 -0.999699 -2.81335e-06 500.242 
2852 9 -0.579347 13.9417 0.691476 31.8906 0 0 0 0 0 0 4 3 3 0 7 -1 0 0 
634 2 0.161522 0.835743 3.41691 0.710769 0 0 0 -1.5732 -0.22661 -0.701091 1 1 1 0 2 0.999974 3.84093e-07 215.952 
2585 10 1.19497 0.294627 2.81841 18.2705 0 0 0 1.26503 1.59147 -1.17233 7 0 0 0 7 -0.996551 -4.10204e-05 399.533 
3147 10 1.31155 0.654207 1.91056 21.5001 0 0 0 1.04409 -0.366622 0.792992 7 0 0 0 7 -0.998495 -1.63093e-05 134.452 
2044 5 -0.619689 1.37469 2.08479 -2.3641 0 0 0 0 0 0 2 3 3 0 5 0.999998 -5.88344e-06 0 
1779 6 1.00653 0.93901 3.49828 -6.2669 0 0 0 0 0 0 6 0 0 0 6 1 0 0 
864 4 0.897766 1.16107 2.24005 8.29283 0 0 0 0.0683988 0.66081 0.452672 6 0 0 0 6 0 0 46.8825 
92 1 -0.712805 1.29655 3.118 4.67078 0 0 0 -6.48286 1.3533 -0.00210933 0 6 1 5 6 0 0 281.316 
1149 3 -0.633934 1.83138 1.96865 17.4714 0 0 0 2.13403 -0.148022 4.56618 6 5 5 0 11 0 0 163.086 
2158 9 -0.38108 1.57193 2.65497 23.1554 1 0 0 7.12043 2.58285 -0.913257 7 2 2 0 9 -0.998765 -1.30995e-05 373.338 
2995 10 1.13882 1.28484 3.06972 25.0231 0 0 0 -0.259771 -1.30699 0.0524082 6 0 0 0 6 -0.999094 -9.41399e-06 129.016 
2668 9 -0.142407 1.83962 2.08225 26.7312 0 0 0 2.94332 8.08946 5.85858 8 1 1 0 9 -0.999422 -5.94958e-06 695.455 
3238 10 1.02987 1.392 2.77277 31.8487 0 0 0 0 0 0 5 0 0 0 5 -1 0 0 
1452 5 -0.446582 2.28651 3.14292 -7.53225 0 0 0 0 0 0 5 2 2 0 7 1 0 0 
85 2 0.210641 2.5451 3.04049 3.07752 0 0 0 -1.54664 -0.0151308 -0.439727 1 2 0 2 3 0.999921 1.17773e-06 185.027 
374 1 -0.672459 2.08901 3.49269 9.79965 0 0 0 2.30934 -2.48176 -0.602434 5 5 5 0 10 0 0 76.0401 
2461 7 -0.553708 1.97141 1.90018 20.0922 0 1 0 -3.47633 -8.51333 3.76969 8 4 4 0 12 0 0 633.537 
3069 9 -0.557595 2.68933 3.28581 33.1228 0 0 0 0 0 0 2 3 3 0 5 -1 0 0 
2099 5 -0.548044 3.07432 3.05338 -4.85298 0 0 0 0 0 0 5 4 4 0 9 1 0 0 
305 1 -0.64788 3.01194 2.19002 7.50139 1 0 0 -0.62516 1.18235 -6.96197 2 5 3 2 7 0 0 322.36 
2323 10 1.16767 3.22215 3.19777 19.0844 0 0 0 0.351476 -1.89259 -0.205569 8 0 0 0 8 -0.997084 -3.32984e-05 271.874 
2963 9 -0.594509 2.93678 2.49625 30.6363 0 0 0 0 0 0 6 4 4 0 10 -1 8.60684e-07 0 
2510 9 -0.261757 3.50577 2.83142 25.0304 0 0 0 2.37769 2.23629 -3.16804 8 2 2 0 10 -0.999062 -9.65376e-06 132.714 
1845 5 -0.619006 3.70901 2.63933 -0.891994 0 0 0 0 0 0 2 4 3 1 6 0.999987 1.84664e-07 0 
801 4 0.92746 3.76953 2.63559 9.79638 0 0 0 -0.133855 -0.28947 0.795236 6 2 1 1 8 0 0 53.2556 
364 1 -0.602241 4.3828 1.94787 12.8212 0 1 0 -2.18669 -2.18129 0.57731 6 3 3 0 9 0 0 63.3262 
2470 10 1.19526 3.98925 2.16555 15.7858 0 0 0 1.26898 -1.1493 -1.55005 8 0 0 0 8 -0.995763 -4.92443e-05 386.94 
2640 7 -0.587804 4.54275 1.85627 20.0481 0 0 0 2.58931 0.687747 -4.79834 7 3 3 0 10 0 0 193.717 
1864 5 -0.589559 5.46951 2.51635 -6.02753 0 0 0 0 0 0 3 3 3 0 6 1 0 0 
566 2 0.673283 5.02814 2.97315 7.36365 0 0 0 -0.879048 1.20537 -1.15153 6 1 1 0 7 0 0 254.151 
3323 10 1.09511 5.37085 1.95715 24.3122 0 0 0 -0.896759 -1.97288 -0.705768 8 0 0 0 8 -0.998963 -1.05364e-05 376.835 
2619 9 -0.43613 5.26267 3.56988 23.1491 0 0 0 1.79171 0.597744 -5.62091 8 3 3 0 11 -0.99876 -1.26796e-05 225.535 
3080 9 -0.443948 5.29801 2.0116 28.2446 0 0 0 3.10095 -0.978109 5.56567 6 3 3 0 9 -0.9999 -1.00335e-06 266.502 
1734 5 -0.608204 5.89902 3.08647 -2.87765 0 0 0 0 0 0 4 4 4 0 8 0.999998 -5.97401e-06 0 
1832 6 0.57536 5.70544 2.515 -0.833516 0 0 0 0 0 0 3 1 0 1 4 0.999985 2.15402e-07 0 
462 1 -0.676732 5.88772 2.03444 3.68272 0 1 0 0.733171 3.80526 0.879806 0 5 1 4 5 0 0 101.289 
556 1 -0.70114 5.58755 2.05914 9.25426 0 1 0 2.37144 -3.47668 0.0639314 2 6 4 2 8 0 0 113.627 
80 1 -0.519 5.78456 2.5632 14.8025 0 0 0 3.73654 -3.04043 -3.61226 7 4 4 0 11 0 0 232.541 
1382 3 -0.594004 6.15736 2.79319 17.3045 0 0 0 -3.8817 -1.45934 0.187173 7 4 4 0 11 0 0 110.53 
2721 10 1.24214 5.60744 3.35124 21.0155 0 0 0 -0.606529 2.40555 -0.443926 7 0 0 0 7 -0.998306 -1.78785e-05 460.772 
3302 9 -0.239194 5.80817 3.01591 25.9492 0 0 0 5.50734 1.59883 -2.45227 8 2 2 0 10 -0.999349 -6.49277e-06 249.514 
2950 9 -0.635176 5.59395 2.20411 30.6577 0 0 0 0 0 0 6 4 4 0 10 -0.999995 1.1483e-05 0 
582 2 0.0842877 6.96779 2.38927 1.39585 0 0 0 -0.544536 1.01516 1.12683 1 2 2 0 3 0.999943 8.33703e-07 185.823 
510 1 -0.708694 6.94795 2.95829 6.73157 0 0 0 1.81188 -0.729443 2.14005 2 5 3 2 7 0 0 53.8453 
1134 4 0.990421 6.66186 2.72622 10.9393 0 0 0 -0.788539 0.152847 -1.54054 6 0 0 0 6 0 0 218.969 
1043 3 -0.671966 6.87755 2.61736 19.7316 0 1 0 4.68006 -2.65532 -1.27371 8 3 3 0 11 0 0 196.119 
3233 10 1.07018 6.82113 3.01238 28.1605 0 0 0 0 0 0 7 0 0 0 7 -0.999893 0.00026749 0 
3054 10 1.04214 7.10018 3.0552 31.6644 0 0 0 0 0 0 6 0 0 0 6 -1 0 0 
1838 6 1.02349 7.7682 3.45886 -3.31166 0 0 0 0 0 0 7 0 0 0 7 0.999999 -3.14142e-06 0 
1069 4 0.429199 7.6449 3.08181 3.89857 0 0 0 -1.6675 -0.626239 -0.975375 3 4 1 3 7 0.999886 1.6959e-06 299.178 
1313 4 0.803629 7.9933 2.97317 8.35871 0 0 0 0.699881 -1.49737 1.2464 6 0 0 0 6 0 0 310.887 
3014 9 -0.559438 8.11017 2.98742 29.829 0 0 0 0 0 0 8 4 4 0 12 -0.999994 1.51095e-05 0 
2673 9 -0.197428 8.13158 2.64681 26.9606 0 0 0 5.05769 -0.626262 3.78209 7 1 1 0 8 -0.99971 -2.75603e-06 258.339 
3088 9 -0.393961 8.11583 3.33314 33.409 0 0 0 0 0 0 3 2 2 0 5 -1 0 0 
1797 6 0.970557 8.90005 1.96386 -6.22444 0 0 0 0 0 0 6 0 0 0 6 1 0 0 
1872 5 -0.660733 8.83065 2.81271 -1.73961 0 0 0 0 0 0 3 4 3 1 7 0.999992 1.0595e-07 0 
2559 8 1.08193 8.91123 3.05958 13.8504 0 0 0 -0.0701662 0.321126 0.520639 6 0 0 0 6 0 0 27.5023 
771 3 -0.555472 8.46193 3.04269 15.8343 0 0 0 4.23273 -1.78753 -0.95464 7 4 4 0 11 0 0 141.256 
454 1 -0.651156 8.31963 3.20568 11.9761 0 0 0 -2.62612 2.86728 -0.887608 4 4 4 0 8 0 0 102.021 
3013 10 1.25099 8.44045 2.067 22.5175 0 0 0 -0.174003 0.753316 -1.93942 8 0 0 0 8 -0.99866 -1.33941e-05 316.23 
2313 10 1.35911 8.77188 2.83567 19.3217 0 0 0 -0.267144 -0.14094 1.21873 7 0 0 0 7 -0.995585 -4.4626e-05 114.369 
615 1 -0.639841 9.91951 2.61278 4.30676 0 0 0 0.335676 1.62027 0.458348 0 6 3 3 6 0 0 18.909 
524 1 -0.696978 9.48235 2.10734 7.10472 0 0 0 -1.65284 3.32737 -2.6654 1 6 4 2 7 0 0 134.104 
1304 4 0.937186 9.93818 2.86067 10.788 0 1 0 -1.59247 -1.33951 1.20739 7 0 0 0 7 0 0 419.888 
2204 7 -0.54177 9.76754 2.43742 20.9933 0 0 0 -1.50919 -1.80983 0.775211 7 3 3 0 10 0 0 39.4732 
2868 10 0.927779 9.90174 2.54585 32.8441 0 0 0 0 0 0 6 0 0 0 6 -1 0 0 
1603 5 -0.546871 10.1944 3.06867 -7.24986 0 0 0 0 0 0 5 3 3 0 8 1 0 0 
1652 6 0.988168 10.6696 2.18305 -2.91236 0 0 0 0 0 0 7 0 0 0 7 0.999998 -5.36103e-06 0 
539 2 0.217334 10.9537 2.97486 0.638122 0 0 0 2.99117 -0.820534 -0.406681 1 3 1 2 4 0.999968 4.61138e-07 700.25 
971 3 -0.618803 10.5943 2.07463 14.6247 0 1 0 2.52198 0.908146 -1.31052 7 4 4 0 11 0 0 57.1024 
1021 3 -0.694983 10.5411 2.41221 18.7059 0 0 0 7.42362 -0.560544 -1.56258 6 4 4 0 10 0 0 371.16 
2562 9 -0.199635 10.8251 2.9202 25.331 0 0 0 -6.15748 -2.98741 5.07495 8 2 2 0 10 -0.999266 -6.61059e-06 465.629 
2815 9 -0.533947 10.706 2.29401 30.5643 0 0 0 0 0 0 7 4 4 0 11 -1 1.00607e-06 0 
2819 9 -0.145627 10.2976 2.99634 28.0976 0 0 0 0 0 0 6 1 1 0 7 -0.999932 0.000168883 0 
1667 5 -0.739047 11.6086 2.8155 -1.15167 0 0 0 0 0 0 4 5 3 2 9 0.999987 1.7642e-07 0 
1093 4 0.66181 11.3775 2.97082 7.92325 0 0 0 -1.36219 1.75566 -0.745882 5 0 0 0 5 0.99916 1.62751e-05 398.575 
525 1 -0.652628 11.6181 2.28499 11.7026 0 0 0 2.90462 4.45555 0.887655 5 4 4 0 9 0 0 186.501 
2883 9 -0.496394 11.9946 2.65871 32.8145 0 0 0 0 0 0 2 3 3 0 5 -1 0 0 
1525 6 1.02435 12.1252 3.21352 -5.83563 0 0 0 0 0 0 7 0 0 0 7 1 0 0 
1756 5 -0.553307 12.2994 3.39059 -3.64621 0 0 0 0 0 0 7 4 4 0 11 0.999999 -2.46237e-06 0 
741 4 0.18099 12.2501 1.89072 2.85556 0 0 0 1.55633 0.121801 -1.75276 1 3 2 1 4 0.999899 1.59827e-06 399.659 
1239 3 -0.588232 12.5709 3.26143 23.5225 0 0 0 -4.5014 -3.29171 -1.48515 8 3 3 0 11 0 0 213.614 
2173 7 -0.667042 12.3192 1.88904 21.5323 0 0 0 4.30393 0.114481 3.94838 8 4 4 0 12 0 0 218.893 
2113 6 0.981349 13.6805 2.55281 -2.42422 0 0 0 0 0 0 6 1 1 0 7 0.999996 -9.08797e-06 0 
15 1 -0.699233 13.5177 3.38112 3.99971 0 0 0 -5.60436 3.59834 3.44856 0 6 4 2 6 0 0 360.792 
562 1 -0.690141 13.2552 2.32185 8.35804 0 0 0 6.56287 -2.9165 -2.08012 4 6 6 0 10 0 0 358.576 
1222 4 0.908106 12.9987 1.92187 10.3034 0 0 0 0.690954 -0.165647 -0.976304 7 0 0 0 7 0 0 105.772 
592 1 -0.657737 13.0936 2.92817 14.0446 0 0 0 -1.29572 -0.342987 -5.27356 7 6 6 0 13 0 0 189.903 
914 3 -0.650784 13.3209 3.36959 16.7494 0 0 0 -1.08964 7.42039 -3.738 7 5 5 0 12 0 0 450.414 
1074 3 -0.548171 12.9446 1.91729 18.98 0 0 0 5.24345 2.8176 -0.295038 7 3 3 0 10 0 0 227.828 
1778 5 -0.59782 14.263 3.27485 -5.59741 0 0 0 0 0 0 5 4 4 0 9 1 0 0 
1636 5 -0.762145 14.0157 2.09047 -0.574057 0 0 0 0 0 0 3 4 1 3 7 0.999988 1.74796e-07 0 
148 2 0.342226 14.142 3.63833 0.466672 0 0 0 0.29927 0.480901 0.0713933 2 2 1 1 4 0.999977 3.3393e-07 23.3226 
1273 4 0.805393 13.9851 2.63493 5.8368 0 0 0 1.46523 0.0399981 0.877376 5 2 2 0 7 0 0 211.704 
236 1 -0.66695 14.1885 2.85362 11.8244 0 0 0 2.48659 2.90408 4.23768 6 5 5 0 11 0 0 208.939 
2330 7 -0.585308 14.6313 2.88873 22.0454 0 0 0 -0.497525 -3.10563 -0.0613176 6 3 3 0 9 0 0 63.4757 
2994 9 -0.172965 14.5293 3.14471 28.0358 0 0 0 0 0 0 7 1 1 0 8 -0.999919 0.000202486 0 
1436 5 -0.591262 0.626464 4.5211 -4.58297 0 0 0 0 0 0 6 3 3 0 9 1 -1.26663e-09 0 
2022 6 1.04071 0.891188 4.04809 -2.78442 0 0 0 0 0 0 6 0 0 0 6 0.999998 -4.25204e-06 0 
518 2 0.333928 0.363717 5.00415 3.62243 1 0 0 -0.752126 -1.22932 0.0190763 3 2 0 2 5 0.999919 1.20938e-06 148.647 
516 1 -0.701901 0.812413 4.09871 7.58057 1 0 0 9.14597 -3.30827 1.68064 2 6 5 1 8 0 0 624.851 
1318 4 0.958741 0.822924 3.87122 11.2795 0 0 0 -1.34263 1.12582 -1.08044 7 0 0 0 7 0 0 307.406 
1213 3 -0.545236 0.757268 4.59919 16.9309 0 0 0 -2.04901 -0.485933 -2.93781 8 4 4 0 12 0 0 83.8024 
469 1 -0.665602 0.368691 4.11213 13.242 1 0 0 1.30486 -3.06696 -3.86222 5 5 5 0 10 0 0 166.932 
2383 9 -0.465175 0.724591 4.52358 21.9124 0 0 0 13.2232 -1.16556 -1.55642 8 3 3 0 11 -0.99855 -1.55377e-05 1145.78 
3154 9 -0.208103 0.680911 4.08775 28.1362 0 0 0 0 0 0 6 1 1 0 7 -0.999923 0.000191388 0 
1853 5 -0.744466 0.966139 4.67692 -0.752145 0 0 0 0 0 0 1 7 4 3 8 0.999986 1.96035e-07 0 
2134 8 0.99165 1.38672 3.88392 14.8552 0 0 0 1.08633 -1.65176 0.801774 6 0 0 0 6 0 0 330.168 
2269 9 -0.525512 1.34604 4.1289 19.348 0 0 0 -2.69707 2.49856 3.32388 7 3 3 0 10 -0.997151 -3.2816e-05 157.564 
2652 9 -0.592254 1.14889 4.39909 30.766 0 0 0 0 0 0 4 3 3 0 7 -1 0 0 
2217 9 -0.181227 1.62414 4.77521 25.8897 0 0 0 -1.43396 2.86331 -2.28567 6 1 1 0 7 -0.99923 -7.85597e-06 99.2849 
1917 5 -0.569925 2.67877 4.5683 -2.74178 0 0 0 0 0 0 5 3 3 0 8 0.999997 -7.3225e-06 0 
550 2 0.54506 2.34294 3.83451 6.07349 0 0 0 -0.472978 1.31034 -0.772829 5 0 0 0 5 0.999853 2.27615e-06 181.611 
121 1 -0.62323 2.61982 3.85599 12.3173 0 0 0 -2.00372 -1.45406 3.29999 7 5 5 0 12 0 0 109.163 
1885 6 0.659903 3.03601 4.47604 -0.708394 0 0 0 0 0 0 4 2 0 2 6 0.999985 2.03008e-07 0 
1305 4 0.797285 3.56685 5.14846 10.7324 0 0 0 -0.574494 0.019944 0.0469891 7 2 2 0 9 0 0 24.1318 
2583 9 -0.4691 3.36934 4.0433 17.3622 0 0 0 -4.81962 -0.107801 -0.0799558 4 3 3 0 7 -0.996596 -3.93678e-05 149.108 
440 1 -0.657595 3.4224 3.93106 14.9036 0 0 0 1.29881 -7.08741 -7.29172 7 4 4 0 11 0 0 674.045 
2578 9 -0.396328 3.30566 3.7651 21.2719 0 0 0 -7.45047 -1.08604 2.61424 9 3 3 0 12 -0.998128 -2.04578e-05 407.446 
2498 9 -0.295192 3.01163 5.00264 23.6169 0 0 0 -7.66987 -0.922275 -4.7533 8 2 2 0 10 -0.998762 -1.27195e-05 527.699 
2890 9 -0.159423 3.44641 3.78611 28.1849 0 0 0 0 0 0 6 1 1 0 7 -0.999934 0.000165057 0 
3101 10 0.891162 3.40644 5.05533 33.1662 0 0 0 0 0 0 5 1 1 0 6 -1 0 0 
2086 5 -0.427709 4.53391 4.43896 -7.54119 0 0 0 0 0 0 4 2 2 0 6 1 0 0 
2009 6 1.0049 4.36431 4.35498 -3.63585 0 0 0 0 0 0 6 0 0 0 6 0.999999 -2.49737e-06 0 
620 1 -0.670927 4.20461 4.46006 8.55186 0 0 0 4.81893 3.93016 5.1659 3 6 5 1 9 0 0 419.194 
289 1 -0.649087 4.37866 3.89539 5.64767 0 0 0 0.668694 7.40047 3.5766 0 6 2 4 6 0 0 436.2 
1181 4 1.08916 4.59578 3.92461 13.237 0 0 0 0.926987 -0.562086 1.98774 7 0 0 0 7 0 0 371.888 
2736 9 0.000531303 4.17446 5.27064 26.2394 0 0 0 -0.892027 -4.88922 2.31392 6 0 0 0 6 -0.999359 -6.17619e-06 192.773 
3225 10 1.0563 4.18042 3.77198 30.0868 0 0 0 0 0 0 6 0 0 0 6 -0.999998 5.44159e-06 0 
3133 9 -0.628352 3.86249 5.29362 31.1761 0 0 0 0 0 0 4 4 4 0 8 -1 0 0 
1969 5 -0.65693 4.68733 5.20631 -1.40005 0 0 0 0 0 0 3 5 4 1 8 0.999986 1.79681e-07 0 
14 2 0.332091 5.0904 4.01195 3.70833 0 0 0 -0.644579 -1.07669 1.22284 3 4 1 3 7 0.99988 1.74584e-06 219.689 
390 2 0.0934508 4.94286 4.5766 1.04131 0 0 0 2.17332 -0.704392 -2.03162 1 2 1 1 3 0.999952 6.64234e-07 668.85 
225 1 -0.661902 4.97415 3.96925 11.1082 0 0 0 0.704875 9.00475 2.02116 5 5 5 0 10 0 0 549.481 
1395 3 -0.57299 5.51775 5.01498 15.6996 0 0 0 -1.45722 3.93254 2.18003 5 3 3 0 8 0 0 143.297 
1030 3 -0.65454 4.92991 4.39745 19.2801 0 0 0 -4.99438 1.76718 0.189872 8 4 4 0 12 0 0 180.255 
3185 9 -0.54025 5.53122 3.87318 32.6633 0 0 0 0 0 0 3 4 4 0 7 -1 0 0 
2017 6 1.01111 6.32159 4.15256 -6.56845 0 0 0 0 0 0 6 0 0 0 6 1 0 0 
1808 5 -0.647213 6.00788 4.95436 -4.65949 0 0 0 0 0 0 4 4 4 0 8 1 -1.26664e-07 0 
1028 4 0.815252 5.86547 5.38753 9.03005 0 0 0 -1.69442 -0.263326 0.352596 6 0 0 0 6 0 0 222.328 
2195 8 1.10319 6.28201 4.68531 17.643 0 0 0 -0.47052 -0.536891 -2.70538 7 0 0 0 7 0 0 567.93 
765 3 -0.573503 6.43059 4.48607 13.2044 0 0 0 2.1156 4.46512 5.11086 5 3 3 0 8 0 0 324.132 
2637 7 -0.665173 5.91578 5.28445 21.3678 0 0 0 3.04913 -4.24246 3.39236 7 4 4 0 11 0 0 248.892 
3024 9 -0.515764 5.81725 4.42762 29.2591 0 0 0 0 0 0 7 3 3 0 10 -0.999982 4.44037e-05 0 
2353 9 -0.231796 6.15148 5.33769 24.8296 0 0 0 6.88274 -4.9683 4.49664 9 1 1 0 10 -0.999106 -8.4243e-06 591.87 
1515 5 -0.442063 7.06813 3.90054 -8.71083 0 0 0 0 0 0 2 2 2 0 4 1 0 0 
1716 6 0.747429 6.55301 5.52071 -1.14157 0 0 0 0 0 0 4 1 0 1 5 0.999985 1.81733e-07 0 
184 1 -0.668616 7.05867 5.18927 4.05739 0 0 0 -3.87031 3.17086 5.23481 1 6 2 4 7 0 0 336.337 
1403 4 0.487022 6.77908 4.89429 6.05287 0 0 0 0.473054 -0.310504 -0.113849 5 3 3 0 8 0.999808 2.82869e-06 24.1684 
2691 9 -0.186717 6.95882 5.00395 27.289 0 0 0 2.38516 1.37787 -2.62322 8 2 2 0 10 -0.999756 -2.25828e-06 92.8044 
1798 5 -0.677738 8.04971 3.77153 -5.92421 0 0 0 0 0 0 4 5 5 0 9 1 0 0 
2074 5 -0.698248 7.60378 5.27397 -2.61894 0 0 0 0 0 0 5 4 4 0 9 0.999996 -1.03673e-05 0 
318 1 -0.713574 7.49817 4.29755 9.76983 0 0 0 1.60171 -5.19835 -7.84452 2 5 5 0 7 0 0 584.486 
784 4 0.892415 7.86972 5.27246 11.817 0 0 0 -1.67441 -2.00081 1.16421 6 0 0 0 6 0 0 592.126 
1370 3 -0.507624 7.68991 3.81851 23.0791 0 0 0 -1.56664 -2.45411 -4.29913 8 2 2 0 10 0 0 172.922 
1104 3 -0.457279 8.22623 4.42547 20.6482 0 0 0 -2.3242 -3.51399 -8.45251 7 2 2 0 9 0 0 572.108 
3290 9 -0.636476 7.54203 5.09561 31.1451 0 0 0 0 0 0 5 4 4 0 9 -1 0 0 
1445 6 0.795136 8.87963 3.977 -8.45619 0 0 0 0 0 0 4 0 0 0 4 1 0 0 
124 2 0.315395 8.66545 4.12841 -0.243156 0 0 0 0 0 0 3 3 1 2 6 0.99998 2.62601e-07 0 
433 1 -0.714989 8.5935 5.24635 7.26534 0 0 0 -0.0503729 1.42401 3.93841 0 6 6 0 6 0 0 112.513 
753 3 -0.619563 8.75796 5.03764 14.4896 0 0 0 -8.54887 2.00285 -0.586747 6 4 4 0 10 0 0 496.703 
1160 3 -0.542413 8.3782 4.23928 18.0947 0 0 0 1.13572 -3.80487 -2.22132 9 3 3 0 12 0 0 132.78 
2661 10 1.15797 8.7037 5.5191 23.6745 0 0 0 -0.920957 -0.573349 0.117515 7 0 0 0 7 -0.999139 -7.31619e-06 86.3785 
3336 9 -0.499276 8.8897 5.42748 28.7146 0 0 0 0 0 0 6 3 3 0 9 -0.999965 8.87462e-05 0 
2731 9 -0.19344 8.6406 4.37216 25.2464 0 0 0 0.648682 1.74863 -1.55791 8 1 1 0 9 -0.99931 -6.08658e-06 37.8792 
1773 6 0.99291 9.46426 5.14138 -5.49567 0 0 0 0 0 0 6 0 0 0 6 1 0 0 
1599 5 -0.532889 9.62046 3.98375 -3.84718 0 0 0 0 0 0 6 3 3 0 9 0.999999 -1.69624e-06 0 
624 2 0.217665 9.9021 4.469 2.89945 0 0 0 1.0875 0.255191 1.64784 2 1 1 0 3 0.999887 1.60668e-06 283.595 
923 4 0.751818 9.31486 3.8451 5.95441 0 0 0 0.26329 0.216865 0.783732 6 4 4 0 10 0 0 53 
2272 8 1.06272 9.38129 5.08583 16.5078 0 0 0 1.30068 -0.962308 0.355586 8 0 0 0 8 0 0 199.08 
2248 9 -0.346863 10.1478 4.06432 23.1342 0 0 0 -0.0373732 -5.47858 2.94063 9 3 3 0 12 -0.999082 -8.04865e-06 247.993 
2989 10 1.00068 9.87704 4.10709 29.7518 0 0 0 0 0 0 7 0 0 0 7 -0.999996 1.06924e-05 0 
3078 9 -0.608633 10.1466 4.47611 32.1118 0 0 0 0 0 0 4 4 4 0 8 -1 0 0 
1862 5 -0.686036 10.2392 5.0646 -1.25821 0 0 0 0 0 0 4 4 2 2 8 0.999986 1.79752e-07 0 
1420 3 -0.654384 10.3902 4.13067 9.25114 0 0 0 0.854757 6.48389 -1.20845 2 4 4 0 6 0 0 283.709 
117 1 -0.712677 10.1975 5.45487 4.7498 0 0 0 -0.0957519 4.29993 1.05726 0 6 4 2 6 0 0 125.822 
869 3 -0.6799 10.7885 3.80847 16.763 0 0 0 -1.61524 -2.62919 -4.43658 7 4 4 0 11 0 0 187.324 
899 3 -0.61724 10.7204 4.08183 13.1724 0 0 0 -4.35872 3.6393 -3.42139 5 5 5 0 10 0 0 281.894 
2454 9 -0.161363 10.7645 5.0632 26.5165 0 0 0 -2.27336 -2.59919 -3.08536 9 1 1 0 10 -0.999531 -4.03091e-06 137.541 
1852 5 -0.621201 11.3863 5.01751 -5.61017 0 0 0 0 0 0 4 3 3 0 7 1 0 0 
56 1 -0.633995 11.8696 4.51545 6.79569 0 0 0 4.47805 6.44108 4.17231 1 5 5 0 6 0 0 506.386 
821 4 0.454703 11.7744 3.73331 4.84069 0 0 0 -0.913619 1.06208 -0.00471158 4 6 4 2 10 0.999826 2.87648e-06 142.385 
2386 8 0.93951 11.9296 4.12227 15.0262 0 0 0 -0.258458 0.752153 -0.678909 7 0 0 0 7 0 0 79.3238 
936 3 -0.511151 11.5263 4.16423 20.3078 0 0 0 3.1894 0.698613 -9.62089 6 2 2 0 8 0 0 662.078 
2762 10 1.1227 11.6994 4.67184 24.63 0 0 0 0.941101 0.88956 -0.643494 8 0 0 0 8 -0.99928 -6.23265e-06 151.695 
2062 5 -0.455991 12.8943 4.32967 -7.61057 0 0 0 0 0 0 2 2 2 0 4 1 0 0 
1926 6 0.988872 12.1109 4.63887 -1.42118 0 0 0 0 0 0 6 1 1 0 7 0.999988 1.509e-07 0 
84 2 0.149372 12.7116 4.73293 2.42844 0 0 0 -0.663251 0.669897 0.685126 1 2 1 1 3 0.999899 1.39964e-06 97.1803 
825 3 -0.632785 12.8408 4.29057 10.1343 0 0 0 7.35591 1.23156 -2.59725 5 4 4 0 9 0 0 400.061 
2240 8 0.977863 12.7317 4.15008 12.1339 0 0 0 -0.825225 -0.472891 -2.45278 7 0 0 0 7 0 0 502.061 
2280 10 1.28292 12.0117 3.7913 18.4112 0 0 0 -0.18761 -0.100726 0.453188 7 0 0 0 7 -0.992386 -6.27472e-05 18.1885 
3068 9 -0.22854 12.2403 4.38525 28.2824 0 0 0 2.89015 -1.73872 -1.75606 8 2 2 0 10 -0.999885 -1.0075e-06 92.7475 
3142 10 0.933379 12.1938 4.55638 31.9223 0 0 0 0 0 0 5 0 0 0 5 -1 2.78151e-07 0 
1358 3 -0.637387 13.5951 5.40303 14.5096 0 0 0 1.03345 -0.101255 4.69048 6 4 4 0 10 0 0 148.031 
2175 10 1.28503 12.9459 3.98321 21.6334 0 0 0 0.908088 -2.6004 -0.925372 7 0 0 0 7 -0.99714 -2.54879e-05 612.493 
1148 3 -0.619674 13.8497 4.25255 19.3512 0 0 0 -3.64887 7.49608 -0.734384 8 4 4 0 12 0 0 449.276 
2918 9 -0.572828 13.0241 3.81505 30.3846 0 0 0 0 0 0 6 4 4 0 10 -0.999993 1.81469e-05 0 
2239 9 -0.120296 12.996 3.83276 25.981 0 0 0 -7.12547 -0.589611 -9.38979 10 1 1 0 11 -0.999411 -5.26053e-06 893.411 
1977 6 0.838682 14.7581 4.81967 -7.3243 0 0 0 0 0 0 5 0 0 0 5 1 0 0 
1943 5 -0.72296 14.2369 4.43833 -1.32075 0 0 0 0 0 0 5 6 4 2 11 0.99999 1.33511e-07 0 
734 4 0.964583 14.2053 4.28907 8.57414 0 0 0 0.585394 -0.896665 -1.7533 6 0 0 0 6 0 0 306.191 
371 1 -0.673032 14.7171 4.34716 6.57659 0 0 0 0.311165 0.57089 0.660218 3 6 6 0 9 0 0 5.50734 
1102 9 -0.212858 14.5147 4.89265 24.0043 0 0 0 7.25146 -4.12258 -0.79099 9 1 1 0 10 -0.999151 -7.59707e-06 450.303 
880 3 -0.647768 14.6491 5.28698 21.4299 0 0 0 3.37776 2.03179 -1.32845 6 4 4 0 10 0 0 110.979 
1495 6 0.980344 0.0800003 6.34961 -5.01221 0 0 0 0 0 0 7 0 0 0 7 1 0 0 
1755 6 0.846027 0.384275 6.86601 -1.11789 0 0 0 0 0 0 5 1 0 1 6 0.999988 1.48779e-07 0 
250 1 -0.635932 0.781135 7.02573 4.00047 0 0 0 -1.00539 3.01874 -6.06295 0 6 1 5 6 0 0 300.713 
1252 4 0.670049 0.247246 6.47142 6.25995 1 0 0 1.32702 -1.9511 0.835434 6 1 0 1 7 0.999902 1.5145e-06 454.543 
194 1 -0.67813 0.278252 7.06953 12.887 0 0 0 0.324361 1.68919 -5.64885 6 4 4 0 10 0 0 223.648 
2548 8 1.04321 0.731947 7.3123 15.6696 0 0 0 -0.254769 -0.483609 -2.81446 7 0 0 0 7 0 0 596.312 
2615 9 -0.238744 0.77497 6.1499 24.0158 0 0 0 9.9155 5.72692 0.929208 7 1 1 0 8 -0.998909 -1.09788e-05 846.524 
2764 9 -0.635986 0.237092 6.86054 31.0174 0 0 0 0 0 0 3 4 4 0 7 -0.999998 5.32463e-06 0 