ITEM: TIMESTEP
1000
ITEM: NUMBER OF ATOMS
3783
ITEM: BOX BOUNDS pp pp ff
0.0000000000000000e+00 2.5084187741634910e+01
0.0000000000000000e+00 2.4878427395809343e+01
-1.0000000000000000e+01 8.0000000000000000e+01
ITEM: ATOMS id type q x y z ix iy iz vx vy vz v_Ocoord v_Mcoord v_Tacoord v_Hfcoord c_ncoord[11] c_locpot[1] c_locpot[2] 
1818 5 -0.280018 0.167498 0.256389 -8.93728 0 0 0 0 0 0 3 1 1 0 4 0.6 0 
1893 5 -0.440595 1.32986 0.192039 -6.05707 0 0 0 0 0 0 6 2 2 0 8 0.6 0 
1936 5 -0.322236 0.129823 2.95334 -6.77716 0 0 0 0 0 0 6 2 2 0 8 0.6 0 
1916 6 1.05508 0.596862 2.35111 -2.94563 0 0 0 0 0 0 7 0 0 0 7 0.6 0 
1861 5 -0.352671 1.21377 2.30287 -1.01995 0 0 0 0 0 0 5 2 2 0 7 0.6 0 
1869 5 -0.325993 0.655626 0.338118 -2.8042 0 0 0 0 0 0 6 2 2 0 8 0.6 0 
1013 1 -0.404441 0.730749 2.71802 2.11922 0 0 0 -2.4886 -1.30506 1.3964 5 3 0 3 8 0 0 
31 1 -0.534355 0.614447 1.2182 7.24135 0 0 0 -6.3601 -7.66946 0.110244 4 3 0 3 7 0 0 
201 2 0.838275 0.920754 2.74629 8.51581 0 0 0 0.860206 -1.9517 0.0213666 6 0 0 0 6 0 0 
1384 1 -0.517681 1.5607 0.415044 3.12028 0 0 0 -4.42293 -6.27387 1.89201 7 4 0 4 11 0 0 
137 1 -0.538024 0.447676 1.0502 14.6066 0 0 0 6.93662 0.693469 -3.63687 5 4 0 4 9 0 0 
715 2 0.842957 0.668266 0.454412 16.7884 0 0 0 0.450448 0.340143 -0.496667 6 0 0 0 6 0 0 
151 1 -0.549305 1.26296 2.60557 16.4221 0 0 0 -0.62496 -0.0415806 -4.70949 3 4 0 4 7 0 0 
235 1 -0.456699 0.892463 2.98458 21.6747 0 0 0 -0.150807 8.2848 -1.97281 2 3 0 3 5 0 0 
328 2 0.828126 0.478499 0.162139 20.1543 0 0 0 -1.03518 -0.250426 -0.595388 6 0 0 0 6 0 0 
301 1 -0.533959 0.223248 1.39786 18.6597 0 0 0 4.0106 4.17844 -0.356632 3 4 0 4 7 0 0 
1683 1 -0.532373 0.593645 0.573574 22.4204 0 0 0 3.91843 3.85383 -2.07091 3 4 0 4 7 0 0 
413 2 0.79435 1.48384 1.36995 26.0946 0 0 0 0.518882 -1.73979 1.6501 6 0 0 0 6 0 0 
1692 1 -0.572323 0.183626 0.111428 25.1804 1 1 0 -5.79219 0.929636 0.978234 4 4 1 3 8 0 0 
312 1 -0.508496 1.42778 2.99692 24.6956 0 0 0 0.418635 9.52524 -0.616247 4 5 0 5 9 0 0 
346 1 -0.464034 1.25436 1.64876 33.1538 0 0 0 2.21621 7.0129 0.36773 7 3 3 0 10 0 0 
445 1 -0.556357 0.0541841 2.45412 30.9958 0 0 0 6.39671 -2.76347 -5.217 5 4 3 1 9 0 0 
2336 3 -0.509524 1.5187 2.97099 38.3075 0 0 0 4.43269 2.58076 0.119905 8 3 3 0 11 0 0 
3532 3 -0.425465 1.44939 0.344365 35.526 0 1 0 -4.41623 -2.94371 1.71839 6 3 3 0 9 0 0 
3005 3 -0.237461 0.638615 2.82461 35.9829 0 0 0 -4.16226 -4.5889 1.66283 6 2 2 0 8 0 0 
3011 3 -0.254908 1.44204 2.75985 40.873 0 0 0 2.24294 -4.05819 6.91235 7 2 2 0 9 0 0 
2342 4 1.09138 0.749852 1.11897 37.1453 0 0 0 -1.59582 1.25465 0.565346 7 0 0 0 7 0 0 
2351 3 -0.405323 0.15622 0.750176 39.1945 0 0 0 -1.06227 4.95328 5.3185 6 2 2 0 8 0 0 
2700 3 -0.14091 0.592638 0.593333 42.1537 1 0 0 -3.67607 0.842268 6.1337 7 1 1 0 8 0 0 
3442 3 -0.339132 0.838333 0.645704 45.8311 0 0 0 0.778771 0.141964 -6.34699 5 2 2 0 7 0 0 
3474 4 1.03961 0.767378 1.73004 47.6201 0 0 0 -1.01261 -1.87601 2.12072 6 0 0 0 6 0 0 
3469 9 -0.280149 0.302014 0.293553 52.0023 0 0 0 0 0 0 7 2 2 0 9 -0.6 0 
3460 9 -0.160338 0.955826 2.53659 50.7078 0 0 0 0 0 0 7 1 1 0 8 -0.6 0 
2475 9 -0.331066 1.05794 0.628025 58.2808 0 0 0 0 0 0 6 2 2 0 8 -0.6 0 
2469 9 -0.33318 1.3669 2.80468 59.7112 0 0 0 0 0 0 3 2 2 0 5 -0.6 0 
3084 10 1.06266 0.835443 2.55907 57.7348 0 0 0 0 0 0 7 0 0 0 7 -0.6 0 
3076 9 -0.427577 1.13701 0.766813 54.4535 0 0 0 0 0 0 6 3 3 0 9 -0.6 0 
1820 5 -0.404778 2.29364 1.75756 -7.90413 0 0 0 0 0 0 5 3 3 0 8 0.6 0 
1826 6 0.788234 2.82035 1.35825 -9.71148 0 0 0 0 0 0 3 0 0 0 3 0.6 0 
1871 5 -0.458341 1.98802 2.1715 -4.4454 0 0 0 0 0 0 5 3 3 0 8 0.6 0 
1905 5 -0.220873 3.12562 0.656879 -1.53567 0 0 0 0 0 0 4 1 1 0 5 0.6 0 
24 1 -0.247527 2.99135 1.68671 1.34908 0 0 0 -1.58633 0.0964027 5.44783 6 3 1 2 9 0 0 
86 2 0.884386 2.43742 2.31354 3.43661 0 0 0 -1.25319 -1.86191 2.78547 7 0 0 0 7 0 0 
12 1 -0.484584 2.36423 1.4749 5.33417 0 0 0 -3.72756 7.8798 1.33184 4 4 0 4 8 0 0 
156 2 0.845315 1.97138 2.74676 11.484 0 0 0 0.31848 1.3175 0.620509 7 0 0 0 7 0 0 
124 1 -0.528744 2.39116 2.52387 13.3737 0 0 0 0.194012 -1.36826 -3.18554 5 4 0 4 9 0 0 
616 2 0.823546 2.02825 0.143796 13.8014 0 1 0 -0.103434 0.701942 -0.223517 6 0 0 0 6 0 0 
161 1 -0.470798 1.5827 1.25056 10.0818 0 0 0 7.21179 -2.49873 3.42706 4 4 0 4 8 0 0 
135 1 -0.454644 2.64261 0.325847 17.6594 0 0 0 -0.0404962 6.96659 -0.982927 2 3 0 3 5 0 0 
310 1 -0.570366 2.44104 0.185099 20.405 0 0 0 4.2713 -3.22665 -6.89218 3 4 0 4 7 0 0 
258 1 -0.500799 2.63739 2.9638 18.7274 0 0 0 -1.43654 -4.40963 5.68487 1 3 0 3 4 0 0 
372 1 -0.459811 3.02983 1.95936 27.1593 0 0 0 4.30415 7.99906 -0.600903 4 3 0 3 7 0 0 
376 2 0.839505 2.71648 0.516362 22.4591 0 0 0 -0.0933767 -1.12889 -0.774946 6 0 0 0 6 0 0 
788 1 -0.420426 2.6402 0.737593 24.3862 0 0 0 2.30312 2.82866 2.65347 4 2 0 2 6 0 0 
805 1 -0.481148 2.40559 1.28062 29.7062 0 0 0 0.926319 -1.94386 -6.5931 5 3 1 2 8 0 0 
3418 4 1.04759 2.05194 2.28643 31.4296 0 0 0 0.618828 -1.6456 -0.713908 7 0 0 0 7 0 0 
3091 4 1.08812 2.76519 0.0871213 33.8425 0 1 0 0.730301 -1.16886 -0.757603 7 0 0 0 7 0 0 
3458 3 -0.35641 2.80247 0.460591 40.5727 0 0 0 0.573103 -1.21877 -3.58726 6 2 2 0 8 0 0 
2335 3 -0.307922 2.60005 0.775782 37.9743 0 0 0 1.1909 3.91414 0.715007 5 2 2 0 7 0 0 
2403 4 1.0938 2.86224 2.34661 39.542 0 0 0 0.167005 -1.32816 0.138049 7 0 0 0 7 0 0 
3023 3 -0.196197 1.68099 2.3674 43.6859 0 0 0 -1.89803 0.0194389 1.07674 4 1 1 0 5 0 0 
2456 3 -0.556085 2.5677 2.41508 47.1976 0 0 0 0.617262 0.256512 -4.10138 6 3 3 0 9 0 0 
2492 10 1.13882 3.03295 0.94751 54.0654 0 0 0 0 0 0 8 0 0 0 8 -0.6 0 
3049 9 -0.480246 2.67552 2.23409 52.6073 0 0 0 0 0 0 5 3 3 0 8 -0.6 0 
2437 10 1.11973 2.81319 1.5826 50.598 0 0 0 0 0 0 7 0 0 0 7 -0.6 0 
2426 3 -0.497578 1.7176 0.724279 49.0665 0 0 0 -6.5756 0.422508 3.7176 7 3 3 0 10 0 0 
3485 9 -0.402269 2.30675 2.04141 56.328 0 0 0 0 0 0 7 3 3 0 10 -0.6 0 
1825 5 -0.563832 4.33362 2.73308 -9.00847 0 0 0 0 0 0 4 3 3 0 7 0.6 0 
1862 5 -0.519436 4.17963 2.44494 -6.12297 0 0 0 0 0 0 7 4 4 0 11 0.6 0 
1881 5 -0.480113 4.02865 0.365068 -4.42717 0 0 0 0 0 0 5 3 3 0 8 0.6 0 
1926 6 1.10768 3.22942 0.576211 -6.27741 0 0 0 0 0 0 7 0 0 0 7 0.6 0 
1866 6 1.01695 3.23203 2.67604 -1.04386 0 0 0 0 0 0 8 0 0 0 8 0.6 0 
1908 5 -0.603829 4.43932 2.71865 -2.80175 0 0 0 0 0 0 6 4 4 0 10 0.6 0 
138 1 -0.477718 4.00526 1.61187 8.81369 0 0 0 -5.72217 -0.932319 0.824956 6 3 0 3 9 0 0 
46 2 0.841298 3.57145 1.49258 6.91051 0 0 0 -1.07675 -0.565521 -0.431783 7 0 0 0 7 0 0 
3 1 -0.319479 4.52279 1.35642 3.3486 0 0 0 0.654452 0.710337 7.14879 3 2 0 2 5 0 0 
130 2 0.803074 4.29156 2.49699 13.9838 0 0 0 -0.970551 -1.32875 -0.825614 7 0 0 0 7 0 0 
674 2 0.840832 3.31489 0.157879 9.90399 0 0 0 -0.648433 1.06384 -1.11486 7 0 0 0 7 0 0 
147 1 -0.538687 3.2474 0.928692 15.2821 0 0 0 2.13205 -3.54656 9.6004 3 4 0 4 7 0 0 
622 1 -0.445903 3.16413 0.472761 12.0446 0 1 0 -1.04832 0.132739 2.94961 5 4 0 4 9 0 0 
268 2 0.809743 3.20803 2.31974 16.81 0 0 0 1.82645 1.21073 -1.36003 6 0 0 0 6 0 0 
263 2 0.817844 4.03651 0.417013 19.0354 0 0 0 1.90338 -0.976101 -0.327089 5 0 0 0 5 0 0 
261 1 -0.592849 3.60681 2.28288 22.235 0 0 0 -3.66216 1.30815 -2.82323 1 4 0 4 5 0 0 
414 2 0.855793 3.89719 2.45541 28.9671 0 0 0 2.76947 0.0442592 1.0824 7 0 0 0 7 0 0 
900 1 -0.577837 3.72707 1.19935 32.4526 0 0 0 3.79919 -3.59891 1.72412 6 4 4 0 10 0 0 
2521 3 -0.417273 4.35634 0.439068 34.828 0 0 0 -2.77836 0.828798 -2.82844 5 2 2 0 7 0 0 
2358 3 -0.276153 3.3053 2.49983 35.9163 0 0 0 -1.45255 1.44473 0.893443 5 1 1 0 6 0 0 
2371 3 -0.380472 3.64501 1.3439 45.177 0 0 0 -1.87157 5.59179 1.48056 7 3 3 0 10 0 0 
2552 3 -0.354529 4.27955 0.387976 42.7299 0 0 0 1.81254 3.11869 0.271712 7 2 2 0 9 0 0 
3435 3 -0.215414 3.97085 2.7134 41.6862 0 0 0 1.6225 1.38757 -0.360335 7 2 2 0 9 0 0 
2450 4 1.05556 4.4542 1.96493 47.7549 0 0 0 -0.866536 1.46908 2.40411 8 0 0 0 8 0 0 
3056 3 -0.327138 3.7911 0.0548463 47.3618 0 1 0 2.35026 3.62143 3.33112 7 2 2 0 9 0 0 
3470 3 -0.467203 4.36339 0.878624 49.7755 0 0 0 -3.87673 -1.11301 6.55705 7 3 3 0 10 0 0 
3066 10 0.950658 3.28341 2.79106 59.2624 0 0 0 0 0 0 5 0 0 0 5 -0.6 0 
2487 9 -0.539622 4.49305 2.47126 57.6906 0 0 0 0 0 0 7 4 4 0 11 -0.6 0 
2470 9 -0.455606 4.174 2.63235 54.6428 0 0 0 0 0 0 7 4 4 0 11 -0.6 0 
3496 9 -0.315647 3.55188 0.82441 59.3525 0 0 0 0 0 0 4 2 2 0 6 -0.6 0 
2478 9 -0.36485 4.4989 0.348633 56.0416 0 0 0 0 0 0 10 3 3 0 13 -0.6 0 
1812 5 -0.381962 4.7493 0.357605 -7.59754 0 0 0 0 0 0 6 2 2 0 8 0.6 0 
1829 6 0.869075 6.05792 2.14666 -9.73417 0 0 0 0 0 0 4 0 0 0 4 0.6 0 
1930 5 -0.504945 4.98062 2.52879 -0.0780096 0 0 0 0 0 0 5 3 2 1 8 0.6 0 
1870 6 1.0704 5.4291 1.00095 -3.18012 0 0 0 0 0 0 7 0 0 0 7 0.6 0 
1884 5 -0.452352 6.0128 0.59889 -1.43104 0 0 0 0 0 0 6 3 3 0 9 0.6 0 
81 1 -0.431487 5.76908 0.917043 6.64784 0 0 0 3.63842 4.0333 5.10599 4 5 0 5 9 0 0 
107 2 0.809845 5.55919 0.0274533 4.28319 0 0 0 -0.159755 -2.47201 -1.67639 7 0 0 0 7 0 0 
144 1 -0.480033 5.43466 1.89007 12.2417 0 0 0 -1.39089 -1.20231 -1.39223 6 4 0 4 10 0 0 
168 2 0.855021 5.58114 2.48884 10.2392 0 0 0 -0.463957 -2.33156 -0.974026 7 0 0 0 7 0 0 
114 1 -0.516378 5.73056 1.21814 14.9253 0 0 0 -1.22747 -2.24467 -1.06007 6 4 0 4 10 0 0 
585 1 -0.449024 5.46837 0.153129 10.3815 0 1 0 -1.24326 -2.73604 2.36445 5 4 0 4 9 0 0 
324 1 -0.566119 5.43889 2.65904 17.3115 0 0 0 0.233953 -5.2958 2.58691 3 4 0 4 7 0 0 
250 1 -0.491673 5.22686 1.76054 20.0035 0 0 0 -2.94054 4.37407 -0.24021 1 4 0 4 5 0 0 
229 2 0.838751 5.61883 1.61073 22.3769 0 0 0 -1.43263 -0.468984 -1.28953 7 0 0 0 7 0 0 
320 1 -0.531797 5.22454 1.0326 24.253 0 0 0 2.12442 -2.29122 1.95002 5 3 0 3 8 0 0 
444 2 0.85897 4.76985 1.6464 26.066 0 0 0 -1.11013 0.738432 1.0368 6 0 0 0 6 0 0 
375 1 -0.491161 5.42176 2.99056 27.662 0 0 0 -1.52519 0.905598 -2.58029 5 4 0 4 9 0 0 
854 1 -0.466823 4.91258 0.650695 29.1451 0 1 0 -4.13048 6.33907 -5.03245 2 3 1 2 5 0 0 
367 1 -0.445656 6.07775 1.59069 31.1005 0 0 0 -0.17818 -2.38591 -2.27988 4 3 3 0 7 0 0 
2347 4 1.03012 4.72949 2.98755 32.941 0 0 0 0.78761 1.81457 2.18134 7 0 0 0 7 0 0 
402 1 -0.355233 6.23903 1.91512 33.7164 0 0 0 -2.26472 -2.66503 -0.86129 7 2 2 0 9 0 0 
3439 4 1.09647 6.25592 2.66407 38.3151 0 0 0 -0.20809 1.4065 0.373276 7 0 0 0 7 0 0 
3019 3 -0.479748 4.76285 1.88269 39.41 0 0 0 -3.69358 -0.155974 1.58054 5 3 3 0 8 0 0 
2531 3 -0.180042 5.34242 0.137859 37.1947 0 1 0 0.34844 -5.04972 3.02523 5 1 1 0 6 0 0 
3128 4 1.08494 6.19823 0.559001 35.3256 0 1 0 1.03238 1.03538 1.00889 7 0 0 0 7 0 0 
2387 4 1.01957 5.48547 1.16791 41.4336 0 0 0 -0.873038 1.51328 1.30409 7 0 0 0 7 0 0 
3033 3 -0.292846 6.24215 0.659703 47.3613 0 0 0 0.576549 7.48217 -8.37957 7 2 2 0 9 0 0 
3432 3 -0.178834 5.38311 3.10381 46.4479 0 0 0 0.387322 1.0415 5.39306 7 1 1 0 8 0 0 
2438 3 -0.402981 6.03699 2.75956 48.9447 0 0 0 7.96615 6.8718 -3.45648 5 3 3 0 8 0 0 
3465 9 -0.246807 4.88682 0.639183 53.2963 0 0 0 0 0 0 8 1 1 0 9 -0.6 0 
2435 9 -0.399755 4.96327 2.5233 51.5967 0 0 0 0 0 0 5 3 3 0 8 -0.6 0 
2476 10 1.07343 5.14733 0.51148 58.0096 0 0 0 0 0 0 7 0 0 0 7 -0.6 0 
1816 5 -0.38081 6.83056 0.226397 -9.23727 0 0 0 0 0 0 5 2 2 0 7 0.6 0 
1827 5 -0.307262 6.77201 2.29204 -7.39996 0 0 0 0 0 0 6 2 2 0 8 0.6 0 
1900 5 -0.480006 6.55336 1.73587 -4.69122 0 0 0 0 0 0 4 3 3 0 7 0.6 0 
1925 6 1.04504 6.8785 2.16341 -0.167641 0 0 0 0 0 0 7 0 0 0 7 0.6 0 
1891 5 -0.446503 7.11229 2.80089 -2.1256 0 0 0 0 0 0 4 3 3 0 7 0.6 0 
70 1 -0.396973 6.84236 1.73384 1.64153 0 0 0 0.556747 -1.28221 5.75658 5 3 1 2 8 0 0 
98 1 -0.476645 7.24602 1.33709 4.44107 0 0 0 5.03348 4.25406 -4.77518 4 4 0 4 8 0 0 
134 1 -0.502115 6.86812 1.88019 8.81604 0 0 0 4.09206 -5.59539 1.35655 4 4 0 4 8 0 0 
44 2 0.856434 7.2667 3.06148 3.27038 0 0 0 -0.747335 0.795374 -2.52471 6 0 0 0 6 0 0 
75 2 0.80835 6.30211 2.94 7.00631 0 0 0 2.13916 1.11595 -0.712726 7 0 0 0 7 0 0 
218 1 -0.485428 7.24298 0.0931325 13.0571 0 0 0 1.95933 -0.955905 -2.95003 7 4 0 4 11 0 0 
162 2 0.82017 7.32408 2.07552 13.4657 0 0 0 -2.63365 -1.23811 0.365484 7 0 0 0 7 0 0 
276 2 0.8471 6.66883 1.35553 16.6337 0 0 0 0.381705 -0.640132 -0.658415 6 0 0 0 6 0 0 
294 2 0.777477 7.68618 1.77391 20.0236 0 0 0 -1.85073 0.936704 1.40648 7 0 0 0 7 0 0 
231 1 -0.499504 6.89742 3.07035 21.6644 0 0 0 2.48529 -5.04831 3.50956 5 4 0 4 9 0 0 
409 2 0.844585 7.56547 2.92382 27.8586 0 0 0 -0.840514 -0.573597 -0.646883 7 0 0 0 7 0 0 
304 1 -0.518005 7.1668 2.78857 24.2581 0 0 0 1.42106 1.27308 -2.39807 4 4 0 4 8 0 0 
711 1 -0.420696 6.75228 1.19798 26.6365 0 0 0 -4.06508 2.97003 5.87997 3 3 0 3 6 0 0 
285 1 -0.472408 7.67056 0.625171 22.4137 0 0 0 -1.11201 10.5032 -0.358513 2 5 0 5 7 0 0 
3427 4 1.09446 7.43315 2.80098 31.167 0 0 0 -0.848721 0.585149 -0.525712 6 0 0 0 6 0 0 
2495 3 -0.417542 7.26308 1.94071 40.7202 0 0 0 -3.01353 -1.86945 0.0883465 4 3 3 0 7 0 0 
3396 3 -0.340217 7.4508 1.10361 38.3 0 0 0 -1.9851 -5.21334 6.90022 6 2 2 0 8 0 0 
3015 3 -0.368774 6.644 2.35664 36.3329 0 0 0 3.10788 -1.69026 7.09695 7 2 2 0 9 0 0 
3021 3 -0.412072 6.36289 2.23207 42.9982 0 0 0 -0.880275 -4.23039 -1.72964 6 3 3 0 9 0 0 
2400 3 -0.303122 7.76586 2.32796 45.1064 0 0 0 -1.53231 -4.2571 0.597912 5 2 2 0 7 0 0 
2421 9 -0.351359 7.17582 0.25006 52.0375 0 0 0 0 0 0 6 2 2 0 8 -0.6 0 
2439 9 -0.237656 7.21104 2.41043 53.3751 0 0 0 0 0 0 6 1 1 0 7 -0.6 0 
2441 10 1.1451 6.31568 1.46177 50.4833 0 0 0 0 0 0 7 0 0 0 7 -0.6 0 
3491 9 -0.37907 6.76971 1.82633 55.8945 0 0 0 0 0 0 6 2 2 0 8 -0.6 0 
3490 9 -0.348112 6.69637 1.95896 58.6362 0 0 0 0 0 0 5 3 3 0 8 -0.6 0 
1842 5 -0.440692 8.38255 0.0497362 -6.99822 0 0 0 0 0 0 6 3 3 0 9 0.6 0 
1885 6 1.10051 8.31149 0.482112 -5.03262 0 0 0 0 0 0 7 0 0 0 7 0.6 0 
1924 5 -0.388771 9.05481 2.2919 -5.44265 0 0 0 0 0 0 6 2 2 0 8 0.6 0 
1868 5 -0.507872 8.54344 0.771724 -0.51607 0 0 0 0 0 0 6 3 3 0 9 0.6 0 
71 2 0.816368 8.31825 0.121135 2.65365 0 0 0 0.267468 -1.04855 0.506428 8 0 0 0 8 0 0 
59 1 -0.384139 9.14648 2.12129 2.98703 0 0 0 -2.63726 1.17853 6.18171 7 3 0 3 10 0 0 
490 2 0.833612 8.38206 0.32391 6.17774 0 0 0 0.107134 -0.432664 0.0463953 7 0 0 0 7 0 0 
51 1 -0.460748 8.26621 2.47314 6.65193 0 0 0 -0.114147 -2.37006 -3.5134 4 4 0 4 8 0 0 
21 1 -0.543492 8.80987 0.0870642 8.24367 0 0 0 -1.45765 4.56384 -1.17795 4 4 0 4 8 0 0 
120 2 0.834879 9.10392 2.0361 8.78358 0 0 0 -0.62691 0.122773 1.03095 7 0 0 0 7 0 0 
183 1 -0.467406 8.4151 1.55369 15.1314 0 0 0 -2.8137 6.84561 6.02697 6 5 0 5 11 0 0 
188 1 -0.477253 8.22272 1.97798 11.3242 0 0 0 1.09788 0.385441 -1.55365 3 4 0 4 7 0 0 
136 2 0.84998 9.25783 0.241428 11.7928 0 0 0 0.513579 0.358591 -0.0309692 6 0 0 0 6 0 0 
299 1 -0.538713 7.96016 2.00806 18.0467 0 0 0 5.58801 -3.89127 -6.10774 4 4 0 4 8 0 0 
369 1 -0.490035 9.24542 2.00764 26.8872 0 0 0 1.5027 -1.66353 -1.07781 4 4 0 4 8 0 0 
407 2 0.832373 8.14407 1.16482 24.9967 0 0 0 0.592199 1.06549 1.52205 7 0 0 0 7 0 0 
373 1 -0.544157 8.47886 1.95753 29.584 0 0 0 7.76227 0.955343 -1.15931 5 4 1 3 9 0 0 
370 1 -0.235485 8.69702 1.79487 32.2741 0 0 0 6.84039 0.376905 -4.19196 5 2 1 1 7 0 0 
899 1 -0.403773 8.2424 0.450296 34.9279 0 0 0 -0.486856 1.75856 -4.78489 3 3 3 0 6 0 0 
3452 4 1.07255 9.21994 1.40862 37.0523 0 0 0 -2.30364 -0.362094 0.106635 6 0 0 0 6 0 0 
3413 3 -0.386213 9.21983 3.05278 36.0892 0 0 0 2.39439 -0.00447392 -3.42769 5 2 2 0 7 0 0 
2575 3 -0.117619 9.31361 0.132618 41.85 0 0 0 0.48292 1.35778 -1.87109 5 1 1 0 6 0 0 
2394 3 -0.476116 9.11672 2.62906 42.8125 0 0 0 -1.08655 -6.01681 0.668944 6 4 4 0 10 0 0 
2429 3 -0.172868 8.60949 2.60554 47.8456 0 0 0 -5.5705 9.32574 -12.8692 4 1 1 0 5 0 0 
2381 4 1.00223 8.03779 0.973499 43.4736 0 0 0 2.03077 -0.427706 1.73377 7 0 0 0 7 0 0 
3467 3 -0.361402 8.68358 0.142712 47.7231 0 0 0 8.20075 7.59692 -5.822 7 2 2 0 9 0 0 
2459 9 -0.390154 9.09294 0.0120927 54.2051 0 0 0 0 0 0 5 2 2 0 7 -0.6 0 
2442 9 -0.305257 8.39168 1.63456 50.1752 0 0 0 0 0 0 6 3 3 0 9 -0.6 0 
2474 9 -0.21902 8.53046 0.649621 60.4244 0 0 0 0 0 0 1 1 1 0 2 -0.6 0 
3502 9 -0.498583 8.72897 0.675267 57.5199 0 0 0 0 0 0 7 3 3 0 10 -0.6 0 
2481 10 1.15476 7.9244 0.174061 55.7445 0 0 0 0 0 0 7 0 0 0 7 -0.6 0 
1821 5 -0.327438 9.81229 0.341125 -9.1223 0 0 0 0 0 0 4 2 2 0 6 0.6 0 
1824 5 -0.312697 9.42046 2.75511 -8.03584 0 0 0 0 0 0 6 2 2 0 8 0.6 0 
1890 6 1.04468 10.0861 2.06466 -0.862733 0 0 0 0 0 0 7 0 0 0 7 0.6 0 
1923 5 -0.411751 9.58851 1.21719 -2.99592 0 0 0 0 0 0 7 3 3 0 10 0.6 0 
106 1 -0.263602 10.1572 0.367195 1.46229 0 0 0 -4.4676 3.2265 -1.28266 7 2 0 2 9 0 0 
80 1 -0.498553 10.5061 0.920741 6.12507 0 0 0 5.20152 -3.43246 -4.08907 4 4 0 4 8 0 0 
65 2 0.853224 10.751 1.90437 4.4059 0 0 0 1.26544 1.35477 -0.491697 6 0 0 0 6 0 0 
206 1 -0.486252 10.425 0.768115 10.1188 0 0 0 -2.58149 -4.47658 -4.51872 5 4 0 4 9 0 0 
141 1 -0.492026 10.6098 1.18439 12.7997 0 0 0 7.33239 4.41527 -3.90821 2 3 0 3 5 0 0 
150 2 0.860819 10.5613 2.51603 14.1686 0 0 0 -2.01387 0.178266 -0.46656 7 0 0 0 7 0 0 
284 2 0.836009 9.69947 1.03586 16.9404 0 0 0 1.19696 -1.74254 -1.73955 6 0 0 0 6 0 0 
317 1 -0.534754 9.6473 1.33192 20.4294 0 0 0 -2.60655 -7.62732 7.29178 2 4 0 4 6 0 0 
1021 1 -0.564935 10.628 2.35389 18.0828 0 0 0 0.531908 -3.07156 0.341728 5 4 0 4 9 0 0 
287 2 0.806434 9.99706 0.883362 22.5126 0 0 0 -0.183608 1.09699 -0.601004 7 0 0 0 7 0 0 
252 1 -0.503438 9.60836 2.25875 24.0983 0 0 0 -1.75305 1.10466 -2.93524 4 4 0 4 8 0 0 
391 2 0.803089 10.3163 2.57678 30.1707 0 0 0 0.852582 -0.861939 -0.831906 8 0 0 0 8 0 0 
342 1 -0.513031 10.6795 0.673773 29.0628 0 1 0 -3.97548 4.7334 -1.1334 5 4 0 4 9 0 0 
3402 3 -0.331034 10.8744 1.32154 34.1513 0 0 0 3.4674 3.67343 -1.3348 5 2 2 0 7 0 0 
3095 3 -0.318 9.60328 2.185 38.9688 0 0 0 3.56897 -2.29172 -1.11651 5 2 2 0 7 0 0 
3026 3 -0.389198 10.4225 1.99819 45.2148 0 0 0 1.23 -2.17895 3.22031 6 3 3 0 9 0 0 
2574 4 1.0705 10.8162 0.000328636 45.5428 0 1 0 -1.65179 0.794215 0.76983 7 0 0 0 7 0 0 
3051 9 -0.402588 9.97361 0.179156 51.6997 0 0 0 0 0 0 8 3 3 0 11 -0.6 0 
2433 9 -0.283003 9.77918 2.68682 52.7769 0 0 0 0 0 0 5 2 2 0 7 -0.6 0 
3503 9 -0.40119 9.43037 2.24772 55.6059 0 0 0 0 0 0 6 3 3 0 9 -0.6 0 
3079 9 -0.407919 9.51589 2.74498 58.7605 0 0 0 0 0 0 5 2 2 0 7 -0.6 0 
3074 10 1.11256 10.5001 1.82277 57.3661 0 0 0 0 0 0 7 0 0 0 7 -0.6 0 
1806 6 0.991543 11.1571 1.80164 -8.41236 0 0 0 0 0 0 6 0 0 0 6 0.6 0 
1880 5 -0.451222 11.5986 2.41289 -6.64372 0 0 0 0 0 0 7 3 3 0 10 0.6 0 
1927 5 -0.345296 12.1657 1.34918 -4.23881 0 0 0 0 0 0 6 2 2 0 8 0.6 0 
1845 5 -0.374603 12.329 2.82585 -1.91622 0 0 0 0 0 0 7 2 2 0 9 0.6 0 
1846 5 -0.501943 11.2173 0.393475 -0.946796 0 0 0 0 0 0 6 3 3 0 9 0.6 0 
105 1 -0.298938 11.5728 2.56921 0.51491 0 0 0 -6.44342 -1.15734 3.20216 5 2 1 1 7 0 0 
102 1 -0.530424 11.1314 2.71191 7.95382 0 0 0 0.267869 -4.93901 0.539178 4 4 0 4 8 0 0 
931 1 -0.442638 11.5664 2.92896 2.93916 0 0 0 2.8007 -0.0485414 4.40673 6 3 0 3 9 0 0 
197 2 0.837955 12.1417 1.33361 11.073 0 0 0 -0.552603 0.137524 -0.955094 6 0 0 0 6 0 0 
212 1 -0.469281 11.0124 0.938856 15.4252 0 0 0 4.38058 -2.61061 -0.211455 5 3 0 3 8 0 0 
247 2 0.841746 11.1863 2.9271 19.9889 0 0 0 -0.0411454 -1.96199 -0.4126 6 0 0 0 6 0 0 
1222 1 -0.446859 12.4321 1.3018 20.1245 0 0 0 0.61498 0.890005 -3.52239 4 3 0 3 7 0 0 
416 1 -0.505945 11.6125 2.62094 26.062 0 0 0 -1.41556 2.07845 -7.34551 4 4 0 4 8 0 0 
1130 1 -0.482484 12.0874 1.19278 22.8092 0 0 0 -7.44476 3.08245 -5.03601 2 3 0 3 5 0 0 
897 2 0.853005 11.1027 0.932646 27.0337 0 0 0 -0.156598 0.450311 0.575494 6 0 0 0 6 0 0 
2345 4 1.08085 12.0103 2.65184 32.9925 0 0 0 -0.46242 -2.26568 -0.0588425 7 0 0 0 7 0 0 
448 1 -0.427364 11.3268 1.25029 31.6405 0 0 0 0.522119 5.72954 -2.46787 7 3 2 1 10 0 0 
3421 3 -0.386356 11.1173 0.92359 36.9195 0 1 0 0.289059 5.84679 0.196425 4 2 2 0 6 0 0 
2384 3 -0.270525 11.2332 1.96817 41.3604 0 0 0 1.09275 3.07742 -8.95144 6 2 2 0 8 0 0 
2454 3 -0.298858 11.1308 0.928899 47.5704 0 0 0 1.94134 0.665168 -3.38999 7 2 2 0 9 0 0 
2408 4 1.10586 11.3165 2.41669 43.2327 0 0 0 0.23719 -2.80771 -1.53636 7 0 0 0 7 0 0 
3455 3 -0.497982 11.2325 0.470001 43.5391 0 1 0 -1.90211 -5.54986 -1.47469 6 3 3 0 9 0 0 
2413 10 1.09374 11.3401 1.5741 52.1335 0 0 0 0 0 0 7 0 0 0 7 -0.6 0 
2417 9 -0.280757 11.7162 1.31411 50.0999 0 0 0 0 0 0 6 2 2 0 8 -0.6 0 
2463 9 -0.333253 11.1931 0.865414 59.0255 0 0 0 0 0 0 4 2 2 0 6 -0.6 0 
3071 9 -0.418448 11.8229 2.5958 54.3991 0 0 0 0 0 0 8 3 3 0 11 -0.6 0 
2102 5 -0.51893 13.5647 1.10368 -8.81479 0 0 0 0 0 0 5 3 3 0 8 0.6 0 
915 2 0.90979 13.1664 3.10241 1.73385 0 0 0 -0.986837 0.0902618 -0.522723 6 0 0 0 6 0 0 
1365 1 -0.350484 13.2733 0.836513 3.59622 0 1 0 0.417888 3.84502 1.94116 8 2 0 2 10 0 0 
1011 1 -0.503588 12.5528 2.60428 5.61968 0 0 0 7.11722 1.56869 -3.56841 4 4 0 4 8 0 0 
29 2 0.815234 12.5448 1.27964 7.35311 0 0 0 0.803282 0.323138 0.0435355 7 0 0 0 7 0 0 
1022 1 -0.530391 13.3189 2.03163 9.28732 0 0 0 5.69329 -2.29243 0.644983 4 4 0 4 8 0 0 
1105 1 -0.522501 13.559 2.17031 12.2387 0 0 0 0.238281 -3.75193 1.8217 4 4 0 4 8 0 0 
1120 1 -0.474695 13.8259 0.219268 14.3184 0 1 0 3.99689 -0.532031 4.02191 4 3 0 3 7 0 0 
1041 1 -0.49157 12.8655 2.59147 15.3145 0 0 0 -1.47736 0.949522 8.07561 7 4 0 4 11 0 0 
1198 1 -0.493346 13.4313 1.55049 17.6133 0 0 0 0.156639 -0.0574793 -9.17021 5 4 0 4 9 0 0 
362 2 0.814475 12.9307 1.48221 24.6162 0 0 0 0.272018 -1.5665 0.0253389 6 0 0 0 6 0 0 
1283 1 -0.429006 13.1043 1.0244 28.0802 0 0 0 2.16394 1.82944 -0.529499 6 4 0 4 10 0 0 
3621 3 -0.597375 13.3866 1.19485 33.3247 0 0 0 -2.92342 -2.02736 -3.09678 4 5 5 0 9 0 0 
1329 2 0.867283 13.7407 2.65991 29.4133 0 0 0 -0.26094 0.184761 -1.05039 6 0 0 0 6 0 0 
1266 1 -0.45511 13.7102 0.809765 30.5572 0 0 0 -0.689646 -0.371464 2.59442 6 3 1 2 9 0 0 
3016 3 -0.226548 12.7319 2.65972 35.6388 0 0 0 4.0206 3.18849 -0.0811157 6 2 2 0 8 0 0 
2658 4 1.0362 13.7562 1.06194 35.188 0 0 0 1.37399 -0.3908 -1.02638 6 0 0 0 6 0 0 
2352 3 -0.431719 12.7293 1.58992 38.9971 0 0 0 -1.07854 0.874376 1.88148 8 3 3 0 11 0 0 
2742 3 -0.39621 13.28 0.322259 41.3588 0 0 0 -0.596294 -5.48437 7.17911 6 2 2 0 8 0 0 
2726 3 -0.533246 12.8693 0.223322 46.0477 0 0 0 2.35477 -0.861242 -1.51609 6 4 4 0 10 0 0 
3237 4 1.05323 12.6535 2.11535 47.2802 0 0 0 -1.88521 1.99947 1.29406 7 0 0 0 7 0 0 
2717 3 -0.375833 13.671 1.2909 43.8145 0 0 0 1.19452 -0.201572 5.87623 7 3 3 0 10 0 0 
2708 3 -0.26934 12.7276 3.04287 45.6535 0 0 0 4.32006 -1.16566 -3.42543 5 1 1 0 6 0 0 
2773 3 -0.382993 13.8 0.865885 48.5831 0 0 0 -3.02261 2.82764 -2.61984 7 3 3 0 10 0 0 
3259 9 -0.470134 13.4147 0.928437 52.0261 0 0 0 0 0 0 6 3 3 0 9 -0.6 0 
3504 9 -0.321722 12.565 1.53342 56.7774 0 0 0 0 0 0 6 2 2 0 8 -0.6 0 
2069 6 0.782815 14.3458 2.40946 -9.82295 0 0 0 0 0 0 4 0 0 0 4 0.6 0 
2188 5 -0.316299 14.2901 2.02216 -6.34412 0 0 0 0 0 0 5 2 2 0 7 0.6 0 
2133 5 -0.531746 14.293 2.75959 -3.87572 0 0 0 0 0 0 8 3 3 0 11 0.6 0 
2140 5 -0.373985 15.5907 0.379112 -3.68198 0 0 0 0 0 0 6 2 2 0 8 0.6 0 
2115 5 -0.297255 14.7875 1.90925 -1.39518 0 0 0 0 0 0 8 2 2 0 10 0.6 0 
932 1 -0.360913 14.1258 1.58742 1.14207 0 0 0 2.99925 7.44174 -3.02944 6 3 1 2 9 0 0 
911 2 0.860107 14.6723 1.87658 4.89692 0 0 0 1.45806 0.0655875 1.90415 7 0 0 0 7 0 0 
995 2 0.816663 15.3929 1.62503 8.78747 0 0 0 -0.970301 -0.346122 -0.575653 6 0 0 0 6 0 0 
933 1 -0.529857 14.5669 2.21166 7.00017 0 0 0 -5.16903 2.35166 3.43754 3 4 0 4 7 0 0 
1112 1 -0.510509 15.357 2.7307 14.2285 0 0 0 1.0119 4.11843 1.55247 6 3 0 3 9 0 0 
1047 2 0.851636 14.4786 0.114707 12.4637 0 0 0 -0.147209 -0.918072 -1.52811 7 0 0 0 7 0 0 
1236 2 0.862954 14.5964 1.45971 15.7616 0 0 0 -1.27279 0.995995 -0.370192 7 0 0 0 7 0 0 
1149 1 -0.506676 14.6167 1.44379 21.3402 0 0 0 7.28422 2.69879 9.14299 4 4 0 4 8 0 0 
1200 2 0.815891 14.6453 2.85356 18.9633 0 0 0 -0.494621 0.0032256 -1.80492 7 0 0 0 7 0 0 
1193 1 -0.552897 15.668 1.23417 18.9506 0 0 0 -0.796807 -12.6686 5.20555 4 3 0 3 7 0 0 
1232 1 -0.506873 15.3654 2.57503 23.6216 0 0 0 7.11262 -1.61392 1.9072 5 3 0 3 8 0 0 
1309 2 0.837775 15.4124 0.670345 27.6955 0 1 0 1.70069 1.1954 -2.34668 7 0 0 0 7 0 0 
1734 1 -0.404028 14.3536 2.2151 26.1539 0 0 0 -0.548764 3.33509 1.16998 5 4 0 4 9 0 0 
1142 1 -0.482558 14.4739 0.036148 24.0275 0 1 0 12.1552 4.40875 3.44678 4 4 0 4 8 0 0 
3629 3 -0.476878 15.2671 2.53912 34.7625 0 0 0 -0.617784 4.14682 -4.65383 7 3 3 0 10 0 0 
1334 1 -0.566848 15.5931 2.10747 29.0855 0 0 0 6.925 -4.92283 -4.10699 5 4 1 3 9 0 0 
2670 4 1.04566 15.3846 2.98759 32.9332 0 0 0 0.184919 0.562579 2.068 7 0 0 0 7 0 0 
3326 4 1.05867 14.871 0.893548 40.3264 0 0 0 0.497307 0.294686 -2.2303 7 0 0 0 7 0 0 
2654 3 -0.361118 14.558 1.66117 37.0504 0 0 0 -0.115474 3.61669 -3.11028 7 2 2 0 9 0 0 
3647 3 -0.564695 14.5851 2.73092 40.7019 0 0 0 3.67899 -11.4039 4.2541 4 3 3 0 7 0 0 
2758 4 1.09232 14.6854 0.600122 45.475 0 0 0 -0.271597 0.645954 -0.54526 6 0 0 0 6 0 0 
2745 3 -0.272131 14.7828 2.21435 46.6464 0 0 0 3.54756 4.46784 1.5731 5 2 2 0 7 0 0 
3657 10 1.1037 14.1937 1.9296 50.4933 0 0 0 0 0 0 7 0 0 0 7 -0.6 0 
2932 9 -0.485201 15.3242 0.0404121 50.5111 0 0 0 0 0 0 9 4 4 0 13 -0.6 0 
3678 9 -0.282025 14.5031 2.25707 54.5724 0 0 0 0 0 0 6 2 2 0 8 -0.6 0 
2791 9 -0.313885 15.425 2.53627 59.4872 0 0 0 0 0 0 4 2 2 0 6 -0.6 0 
2803 9 -0.519454 14.6488 2.89451 57.021 0 0 0 0 0 0 8 3 3 0 11 -0.6 0 
2071 5 -0.367028 16.1982 1.94556 -8.72867 0 0 0 0 0 0 4 2 2 0 6 0.6 0 
2091 6 0.875596 16.6854 0.111489 -8.98738 0 0 0 0 0 0 4 0 0 0 4 0.6 0 
2145 5 -0.525166 16.8088 0.531505 -6.09089 0 0 0 0 0 0 6 3 3 0 9 0.6 0 
2181 6 1.10321 15.7113 1.89347 -4.95311 0 0 0 0 0 0 6 0 0 0 6 0.6 0 
2171 5 -0.488807 16.9159 2.71241 -3.71262 0 0 0 0 0 0 6 2 2 0 8 0.6 0 
2172 5 -0.415017 17.2209 0.829308 -1.35607 0 0 0 0 0 0 4 3 2 1 7 0.6 0 
2165 6 1.05798 17.0246 2.71765 -1.82267 0 0 0 0 0 0 7 0 0 0 7 0.6 0 
917 1 -0.383181 16.5499 2.03863 2.45901 0 0 0 5.10941 1.66665 -0.407436 8 2 0 2 10 0 0 
943 2 0.855637 16.3133 0.684597 1.04135 0 0 0 0.723693 -0.278433 0.310478 8 0 0 0 8 0 0 
1000 1 -0.313527 16.6702 2.96895 0.0163246 0 0 0 -1.93005 2.04953 2.07835 7 3 1 2 10 0 0 
1008 1 -0.488144 17.1933 1.50017 7.58965 0 0 0 -0.85059 4.56441 1.78529 6 4 0 4 10 0 0 
985 1 -0.461537 16.071 0.370714 5.28853 0 0 0 -4.88736 1.64079 5.32816 5 4 0 4 9 0 0 
910 1 -0.451121 16.4793 3.00122 4.93272 0 0 0 2.48916 -1.72247 3.89119 6 3 0 3 9 0 0 
1030 1 -0.500121 16.4258 0.457376 13.4768 0 0 0 -2.41091 -0.548568 7.33051 6 4 0 4 10 0 0 
1059 1 -0.471087 15.7806 1.22353 10.9285 0 0 0 0.634128 3.46389 1.638 5 4 0 4 9 0 0 
1087 2 0.855797 17.1732 2.27041 13.8974 0 0 0 -0.518125 -0.78947 1.66837 7 0 0 0 7 0 0 
1630 2 0.821162 16.0414 0.267308 20.6626 0 0 0 -2.06096 1.75645 -0.0113401 6 0 0 0 6 0 0 
1124 1 -0.499135 16.7702 1.75859 16.2763 0 0 0 8.21288 1.69341 6.20736 4 4 0 4 8 0 0 
1234 2 0.846467 16.9636 0.445088 17.7236 0 0 0 -0.654979 -1.309 -1.46338 6 0 0 0 6 0 0 
1256 1 -0.500556 16.8896 2.50286 26.8202 0 0 0 4.43289 -0.227945 -6.2658 5 4 0 4 9 0 0 
1242 2 0.819046 16.2957 0.806604 23.9743 0 0 0 -0.789767 -1.66381 -0.532887 6 0 0 0 6 0 0 
2675 4 1.10485 17.076 1.33059 30.4566 0 0 0 1.87813 0.0564628 1.67109 6 0 0 0 6 0 0 
2661 3 -0.570855 15.8954 1.35312 32.0557 0 0 0 -5.12106 -2.08977 1.00889 3 3 3 0 6 0 0 
3631 3 -0.402088 16.8171 0.241216 37.1109 0 0 0 0.356557 8.92145 0.139524 6 2 2 0 8 0 0 
2688 3 -0.424631 16.5271 2.55721 38.8664 0 0 0 10.1455 -3.43859 -0.271144 4 4 4 0 8 0 0 
2673 4 1.10082 16.4501 2.14952 36.4576 0 0 0 1.7489 -1.85494 0.305998 7 0 0 0 7 0 0 
2696 3 -0.555265 16.819 0.0203213 39.8365 0 1 0 -0.971503 -2.35645 -2.16243 6 4 4 0 10 0 0 
2729 4 1.13548 16.9911 1.59057 43.0782 0 0 0 -1.8631 -1.53986 0.822866 6 0 0 0 6 0 0 
2891 3 -0.383369 15.8325 0.321064 42.1014 0 1 0 0.291903 2.5376 -3.09605 4 2 2 0 6 0 0 
2730 3 -0.368304 16.4637 0.943514 44.8948 0 0 0 0.357205 3.0254 6.2603 7 2 2 0 9 0 0 
2703 3 -0.290402 15.6897 2.99059 43.2768 0 0 0 0.12789 1.70351 -1.36928 5 2 2 0 7 0 0 
2763 3 -0.380525 15.9558 2.52787 49.5631 0 0 0 -0.0408257 -2.85818 1.82764 4 2 2 0 6 0 0 
2750 9 -0.369777 16.4939 1.67381 52.2725 0 0 0 0 0 0 7 3 3 0 10 -0.6 0 
3677 10 1.1435 15.9161 1.86323 55.9673 0 0 0 0 0 0 6 0 0 0 6 -0.6 0 
3283 9 -0.445591 17.1254 3.0547 54.6002 0 0 0 0 0 0 7 3 3 0 10 -0.6 0 
3275 9 -0.374626 15.8947 0.471723 57.4052 0 0 0 0 0 0 8 2 2 0 10 -0.6 0 
3278 9 -0.491766 16.8727 0.533985 54.8571 0 0 0 0 0 0 5 3 3 0 8 -0.6 0 
2087 5 -0.538124 18.5193 0.655655 -8.04571 0 0 0 0 0 0 6 3 3 0 9 0.6 0 
2147 6 1.0683 18.5168 1.89695 -6.60815 0 0 0 0 0 0 7 0 0 0 7 0.6 0 
930 1 -0.236833 18.5233 1.02991 0.820513 0 0 0 -4.13226 -3.59549 0.337408 6 2 0 2 8 0 0 
984 2 0.812446 18.4951 2.32338 2.82385 0 0 0 0.987464 0.0810734 -0.00894353 7 0 0 0 7 0 0 
913 2 0.844093 17.7964 1.40524 5.66862 0 0 0 -0.0435973 0.0700976 0.914747 6 0 0 0 6 0 0 
905 1 -0.484622 18.3729 0.523857 3.77308 0 0 0 -4.23668 1.58173 1.16733 4 4 0 4 8 0 0 
1043 2 0.829019 18.6771 2.27599 8.89107 0 0 0 -0.738559 0.509299 -1.93637 6 0 0 0 6 0 0 
1092 1 -0.43553 18.2873 1.87928 12.0554 0 0 0 0.025182 -2.35457 2.44155 5 4 0 4 9 0 0 
1123 1 -0.560399 18.6311 0.35012 9.67854 0 0 0 1.1654 -2.16289 0.872324 3 4 0 4 7 0 0 
1126 2 0.853268 17.7495 0.00519227 11.5131 0 0 0 1.516 -0.0241757 0.427375 7 0 0 0 7 0 0 
1223 1 -0.571342 17.6649 1.48414 21.4151 0 0 0 -6.54108 3.83067 -3.68083 2 4 0 4 6 0 0 
1789 1 -0.415187 18.2631 0.113966 27.6673 0 1 0 -0.893741 6.43137 0.667526 6 3 0 3 9 0 0 
1133 1 -0.534156 17.8995 2.21725 24.3292 0 0 0 2.78829 -6.02756 -8.1717 5 5 0 5 10 0 0 
1253 2 0.849376 18.7287 1.63358 26.2322 0 0 0 -0.768567 -0.918995 -1.17495 7 0 0 0 7 0 0 
1308 1 -0.503728 18.3308 2.28966 29.4033 0 0 0 -2.15788 -6.49441 4.90115 3 3 1 2 6 0 0 
2651 3 -0.409989 17.5219 1.26664 34.6475 0 0 0 1.67673 -0.695735 -3.69218 6 3 3 0 9 0 0 
3223 3 -0.557349 17.3145 2.40298 41.3187 0 0 0 5.48187 -5.5582 -2.15472 5 3 3 0 8 0 0 
3603 3 -0.318474 18.2806 2.63761 36.7485 0 0 0 -0.805504 -2.90913 1.22203 8 2 2 0 10 0 0 
2725 4 1.05179 18.0648 1.57589 39.658 0 0 0 -0.827074 -1.13524 0.734466 6 0 0 0 6 0 0 
3219 3 -0.221456 17.3233 1.52385 47.4536 0 0 0 -1.74887 -1.97326 0.62382 6 1 1 0 7 0 0 