ITEM: TIMESTEP
0
ITEM: NUMBER OF ATOMS
3783
ITEM: BOX BOUNDS pp pp ff
0.0000000000000000e+00 2.5084187741634910e+01
0.0000000000000000e+00 2.4878427395809343e+01
-1.0000000000000000e+01 8.0000000000000000e+01
ITEM: ATOMS id type q x y z ix iy iz vx vy vz v_Ocoord v_Mcoord v_Tacoord v_Hfcoord c_ncoord[11] c_locpot[1] c_locpot[2] 
1818 5 -0.259539 0.167498 0.256389 -8.93728 0 0 0 0 0 0 3 1 1 0 4 0 0 
1869 5 -0.307458 0.655626 0.338118 -2.8042 0 0 0 0 0 0 6 2 2 0 8 0 0 
1384 1 -0.457857 0.470807 0.607154 3.62699 0 0 0 3.69672 -1.46619 2.41785 5 4 0 4 9 0 0 
31 1 -0.524986 0.760117 0.983951 6.70461 0 0 0 -2.15349 0.170947 1.51391 4 5 0 5 9 0 0 
157 1 -0.381905 0.182716 1.27817 12.0555 0 0 0 3.47386 2.60675 1.61648 5 3 0 3 8 0 0 
137 1 -0.430452 0.620204 0.930961 14.9388 0 0 0 0.823992 2.65111 -4.23902 5 4 0 4 9 0 0 
328 2 0.848266 0.771344 0.921601 21.5361 0 0 0 0.554558 -0.408027 -2.29765 6 0 0 0 6 0 0 
1683 1 -0.501409 0.183706 0.874521 23.5304 0 0 0 -2.67884 -3.5019 -2.52493 4 4 0 4 8 0 0 
1326 2 0.823675 0.27081 1.51332 29.5534 0 0 0 -0.689725 -0.0263425 -0.243735 7 0 0 0 7 0 0 
2364 4 1.10907 0.529421 1.38076 41.8201 0 0 0 2.58526 -0.348444 -0.0569256 6 0 0 0 6 0 0 
3442 3 -0.48217 0.647506 0.684787 45.8803 0 0 0 4.02984 1.96383 6.37746 6 3 3 0 9 0 0 
3469 9 -0.288173 0.302014 0.293553 52.0023 0 0 0 0 0 0 7 2 2 0 9 0 0 
1893 5 -0.428357 1.32986 0.192039 -6.05707 0 0 0 0 0 0 6 2 2 0 8 0 0 
76 1 -0.140116 0.975905 0.0296249 0.205141 0 0 0 -3.22057 5.70713 -3.45757 4 1 0 1 5 0 0 
715 2 0.858034 1.45858 0.280826 17.2736 0 0 0 -0.402122 -0.660535 1.06858 7 0 0 0 7 0 0 
301 1 -0.462188 0.791124 1.46808 19.6284 0 0 0 -4.54799 -4.80652 4.09708 7 4 0 4 11 0 0 
881 1 -0.398794 1.32517 0.651144 31.4797 0 0 0 1.81846 6.43408 9.39628 4 3 2 1 7 0 0 
3076 9 -0.439451 1.13701 0.766813 54.4535 0 0 0 0 0 0 6 3 3 0 9 0 0 
2475 9 -0.346169 1.05794 0.628025 58.2808 0 0 0 0 0 0 6 2 2 0 8 0 0 
161 1 -0.46431 1.7466 1.45409 9.81918 0 0 0 0.436635 -1.8377 -5.08859 6 3 0 3 9 0 0 
413 2 0.801961 1.71049 1.18365 26.8084 0 0 0 -0.256175 2.19541 0.0491016 7 0 0 0 7 0 0 
788 1 -0.518164 2.2635 0.389667 25.0473 0 0 0 4.24733 0.738698 -4.63944 5 3 0 3 8 0 0 
805 1 -0.476507 2.27858 0.590543 28.8666 0 0 0 1.90634 1.90229 1.52036 6 4 0 4 10 0 0 
2335 3 -0.163149 2.12998 0.2725 37.935 0 0 0 2.74739 -6.72059 -0.997269 3 1 1 0 4 0 0 
3458 3 -0.217458 1.79124 0.0836954 41.153 0 0 0 2.00237 -1.03746 1.09151 6 1 1 0 7 0 0 
2426 3 -0.464121 1.73884 0.672472 49.1949 0 0 0 1.38311 4.69945 -1.69121 7 3 3 0 10 0 0 
1826 6 0.826073 2.82035 1.35825 -9.71148 0 0 0 0 0 0 3 0 0 0 3 0 0 
1905 5 -0.192922 3.12562 0.656879 -1.53567 0 0 0 0 0 0 4 1 1 0 5 0 0 
24 1 -0.348775 2.65301 0.886614 2.06761 0 0 0 5.3249 4.63575 -4.39037 7 3 0 3 10 0 0 
12 1 -0.488053 2.64682 1.24064 4.84792 0 0 0 2.91098 -3.34438 1.69188 4 4 0 4 8 0 0 
135 1 -0.47249 2.94059 0.356569 15.9862 0 0 0 -4.48862 -3.41659 -0.654034 5 3 0 3 8 0 0 
310 1 -0.52607 2.6525 0.514664 21.9087 0 0 0 -4.71716 1.53533 2.64799 3 4 0 4 7 0 0 
2492 10 1.12312 3.03295 0.94751 54.0654 0 0 0 0 0 0 8 0 0 0 8 0 0 
1926 6 1.12318 3.22942 0.576211 -6.27741 0 0 0 0 0 0 7 0 0 0 7 0 0 
46 2 0.843408 3.23236 1.239 6.89791 0 0 0 -1.17225 0.0539965 3.44173 6 0 0 0 6 0 0 
674 2 0.850043 3.25506 0.0309884 10.0193 0 0 0 -1.16218 1.00536 1.46201 7 0 0 0 7 0 0 
376 2 0.796178 3.20061 1.45279 23.6131 0 0 0 0.763612 -2.20391 0.932011 5 0 0 0 5 0 0 
900 1 -0.453481 3.68591 0.745792 33.0992 0 0 0 -0.264023 11.2524 -8.72936 6 3 3 0 9 0 0 
2371 3 -0.436083 3.21903 1.37582 45.1742 0 0 0 4.29927 0.566282 -6.21667 7 2 2 0 9 0 0 
3496 9 -0.334972 3.55188 0.82441 59.3525 0 0 0 0 0 0 4 2 2 0 6 0 0 
1881 5 -0.468478 4.02865 0.365068 -4.42717 0 0 0 0 0 0 5 3 3 0 8 0 0 
107 2 0.804803 4.47008 0.129689 3.75874 0 0 0 0.544022 0.584941 1.88964 8 0 0 0 8 0 0 
138 1 -0.445362 4.34516 1.37371 8.64647 0 0 0 -4.21893 1.89254 -3.3826 6 4 0 4 10 0 0 
147 1 -0.440851 4.37908 0.76198 13.7684 0 0 0 1.12938 -2.40955 -2.31438 5 3 0 3 8 0 0 
263 2 0.841563 4.26774 0.944914 19.7006 0 0 0 0.354743 0.0177166 -0.346091 7 0 0 0 7 0 0 
414 2 0.807516 4.25801 1.21173 28.6598 0 0 0 -2.30465 1.45511 -0.830741 7 0 0 0 7 0 0 
2552 3 -0.249784 4.23052 0.318856 42.3345 0 0 0 2.02366 5.0801 0.956152 3 1 1 0 4 0 0 
3470 3 -0.416848 4.40813 0.731221 49.6597 0 0 0 6.00731 -3.27358 -4.96131 7 3 3 0 10 0 0 
2478 9 -0.376846 4.4989 0.348633 56.0416 0 0 0 0 0 0 10 3 3 0 13 0 0 
1812 5 -0.370782 4.7493 0.357605 -7.59754 0 0 0 0 0 0 6 2 2 0 8 0 0 
1870 6 1.08586 5.4291 1.00095 -3.18012 0 0 0 0 0 0 7 0 0 0 7 0 0 
81 1 -0.444394 5.13005 0.905456 6.19662 0 0 0 -1.87865 0.816427 2.59074 4 4 0 4 8 0 0 
281 1 -0.503105 5.4401 0.165563 18.0138 0 0 0 2.02931 -0.780257 -1.62441 2 4 0 4 6 0 0 
444 2 0.806804 5.39395 1.14317 25.7481 0 0 0 -2.18282 -1.62745 -1.7618 6 0 0 0 6 0 0 
320 1 -0.535184 4.82508 0.123107 24.0368 0 0 0 -7.33634 -4.43267 -0.592502 5 5 0 5 10 0 0 
3465 9 -0.260612 4.88682 0.639183 53.2963 0 0 0 0 0 0 8 1 1 0 9 0 0 
2476 10 1.05942 5.14733 0.51148 58.0096 0 0 0 0 0 0 7 0 0 0 7 0 0 
1884 5 -0.437031 6.0128 0.59889 -1.43104 0 0 0 0 0 0 7 3 3 0 10 0 0 
670 2 0.847009 5.58012 0.328113 12.3049 0 0 0 -0.36654 0.70921 1.84258 6 0 0 0 6 0 0 
303 1 -0.529111 5.56412 0.370191 21.5371 0 0 0 3.86287 -9.11123 0.785479 5 4 0 4 9 0 0 
2347 4 0.975145 5.54968 1.50444 33.475 0 0 0 -1.76054 0.892141 -2.29565 7 0 0 0 7 0 0 
402 1 -0.469248 5.80097 0.848987 31.5856 0 0 0 5.68293 -2.99643 -3.06784 6 3 3 0 9 0 0 
2521 3 -0.393956 5.51853 0.134223 35.0888 0 0 0 1.37629 2.90146 -3.35559 5 3 3 0 8 0 0 
2365 3 -0.408439 5.59368 0.179281 44.6984 0 0 0 4.1017 -0.430957 -1.30906 6 2 2 0 8 0 0 
1816 5 -0.363378 6.83056 0.226397 -9.23727 0 0 0 0 0 0 5 2 2 0 7 0 0 
98 1 -0.416324 6.92909 0.961116 4.58324 0 0 0 -0.520573 -5.55851 -6.78706 5 3 0 3 8 0 0 
367 1 -0.391069 6.2922 0.760746 28.6951 0 0 0 -6.61318 -2.065 -1.76933 6 3 0 3 9 0 0 
2495 3 -0.190735 6.40676 1.15314 40.3876 0 0 0 -8.10719 -4.36749 -5.24827 7 1 1 0 8 0 0 
3033 3 -0.247141 6.48481 0.98875 47.1103 0 0 0 1.64758 -10.3608 4.38708 5 1 1 0 6 0 0 
2441 10 1.10347 6.31568 1.46177 50.4833 0 0 0 0 0 0 7 0 0 0 7 0 0 
218 1 -0.548666 7.20377 0.94825 13.4921 0 0 0 -1.10596 -0.155296 -1.92737 4 4 0 4 8 0 0 
711 1 -0.506635 7.18964 0.158747 25.2737 0 0 0 2.72681 0.0887908 0.417471 4 3 0 3 7 0 0 
899 1 -0.244287 7.60634 0.77535 33.4845 0 0 0 -0.911344 0.631558 8.89614 5 2 2 0 7 0 0 
3396 3 -0.454057 7.07094 1.08695 37.7582 0 0 0 1.53132 -3.46344 -0.626123 8 3 3 0 11 0 0 
2381 4 1.08438 7.18365 1.10976 43.8407 0 0 0 -0.0929685 -1.59995 0.787202 6 0 0 0 6 0 0 
2421 9 -0.382919 7.17582 0.25006 52.0375 0 0 0 0 0 0 6 2 2 0 8 0 0 
1842 5 -0.429126 8.38255 0.0497362 -6.99822 0 0 0 0 0 0 6 3 3 0 9 0 0 
1885 6 1.11769 8.31149 0.482112 -5.03262 0 0 0 0 0 0 7 0 0 0 7 0 0 
1868 5 -0.558351 8.54344 0.771724 -0.51607 0 0 0 0 0 0 7 4 3 1 11 0 0 
71 2 0.822376 8.44945 0.28579 1.79827 0 0 0 1.72717 -0.539824 1.09462 7 0 0 0 7 0 0 
490 2 0.863943 8.43251 0.660742 5.93417 0 0 0 2.06736 -0.290494 0.788384 6 0 0 0 6 0 0 
224 1 -0.478065 8.22274 0.00555621 10.1319 0 0 0 -2.05276 -2.36948 4.1104 6 3 0 3 9 0 0 
216 1 -0.5088 7.97087 0.0988442 16.7243 0 0 0 -1.17672 4.25061 -1.20188 2 3 0 3 5 0 0 
272 1 -0.580184 8.00416 0.153642 19.5958 0 0 0 -4.11271 7.14832 -2.27843 5 4 0 4 9 0 0 
234 1 -0.456946 8.19023 0.525593 22.3491 0 0 0 -3.05525 -1.62522 -2.41302 4 4 0 4 8 0 0 
808 1 -0.336805 8.03095 0.00704285 30.7947 0 0 0 2.09984 -2.89773 -3.17084 6 2 1 1 8 0 0 
3457 3 -0.415343 8.27636 0.0269545 45.1254 0 0 0 -3.90885 2.04827 -2.64207 3 2 2 0 5 0 0 
2481 10 1.13866 7.9244 0.174061 55.7445 0 0 0 0 0 0 7 0 0 0 7 0 0 
2474 9 -0.247776 8.53046 0.649621 60.4244 0 0 0 0 0 0 1 1 1 0 2 0 0 
136 2 0.826348 8.67771 0.775672 11.9583 0 0 0 0.765805 0.748958 -0.128347 7 0 0 0 7 0 0 
407 2 0.851327 8.78895 0.929368 24.3914 0 0 0 -0.284755 0.472629 -0.419617 6 0 0 0 6 0 0 
3452 4 1.05619 9.142 1.30818 37.7396 0 0 0 0.233775 0.638944 -0.589039 7 0 0 0 7 0 0 
3095 3 -0.203021 8.95213 1.23675 39.689 0 0 0 0.663701 3.9698 0.255623 7 1 1 0 8 0 0 
3467 3 -0.300706 8.94715 0.445658 47.8902 0 0 0 -1.8146 1.10407 -1.46119 5 2 2 0 7 0 0 
2459 9 -0.402138 9.09294 0.0120927 54.2051 0 0 0 0 0 0 5 2 2 0 7 0 0 
3502 9 -0.508066 8.72897 0.675267 57.5199 0 0 0 0 0 0 7 3 3 0 10 0 0 
1821 5 -0.305877 9.81229 0.341125 -9.1223 0 0 0 0 0 0 4 2 2 0 6 0 0 
1923 5 -0.398244 9.58851 1.21719 -2.99592 0 0 0 0 0 0 7 3 3 0 10 0 0 
21 1 -0.498151 9.41835 0.494945 7.80128 0 0 0 3.85191 -7.95327 2.76176 8 4 0 4 12 0 0 
183 1 -0.500491 9.58255 1.09566 14.7093 0 0 0 3.398 2.48598 -0.808926 5 4 0 4 9 0 0 
284 2 0.806099 9.60218 1.3859 16.8895 0 0 0 1.65804 -0.798117 1.73089 6 0 0 0 6 0 0 
373 1 -0.495343 9.66999 1.16139 29.1582 0 0 0 -2.77308 -2.67534 3.02336 5 3 0 3 8 0 0 
370 1 -0.374964 9.79305 1.50208 31.9208 0 0 0 3.22276 -1.52919 4.31783 7 2 1 1 9 0 0 
2575 3 9.7822e-05 9.94251 0.100757 41.8381 0 0 0 0.525027 3.62965 1.4013 7 0 0 0 7 0 0 
3051 9 -0.480118 9.97361 0.179156 51.6997 0 0 0 0 0 0 8 3 3 0 11 0 0 
106 1 -0.301716 10.3205 1.35752 1.18865 0 0 0 5.71387 2.40623 -6.25842 8 3 1 2 11 0 0 
80 1 -0.530015 10.4599 0.607347 5.51829 0 0 0 -4.66627 7.68131 -3.40742 5 4 0 4 9 0 0 
223 1 -0.428614 10.5934 0.0624001 12.1894 0 0 0 5.94701 0.342803 3.06932 5 3 0 3 8 0 0 
287 2 0.78734 10.7166 1.32067 22.1136 0 0 0 -0.9866 1.27644 0.98045 5 0 0 0 5 0 0 
1846 5 -0.496135 11.2173 0.393475 -0.946796 0 0 0 0 0 0 6 3 3 0 9 0 0 
3402 3 -0.301673 11.0057 0.938201 34.3261 0 0 0 1.47372 -5.97169 4.40184 5 2 2 0 7 0 0 
2352 3 -0.391241 11.4496 1.47016 38.9687 0 0 0 1.49715 -2.7045 -2.23979 8 3 3 0 11 0 0 
2454 3 -0.364771 11.5857 0.575916 47.3407 0 0 0 -2.14186 2.80094 -6.08651 7 2 2 0 9 0 0 
2417 9 -0.327583 11.7162 1.31411 50.0999 0 0 0 0 0 0 5 2 2 0 7 0 0 
2463 9 -0.352075 11.1931 0.865414 59.0255 0 0 0 0 0 0 4 2 2 0 6 0 0 
1927 5 -0.332137 12.1657 1.34918 -4.23881 0 0 0 0 0 0 6 2 2 0 8 0 0 
29 2 0.841858 12.0089 0.973993 7.05363 0 0 0 0.737998 1.16588 0.218475 8 0 0 0 8 0 0 
654 1 -0.492614 12.2113 0.0786892 8.85941 0 0 0 3.22447 -2.66866 -8.44613 2 3 0 3 5 0 0 
197 2 0.831005 12.0457 1.4298 11.6232 0 0 0 -1.12261 0.73946 -0.74113 6 0 0 0 6 0 0 
897 2 0.861066 12.2484 0.313897 27.6893 0 0 0 -2.52581 -0.334804 0.27017 7 0 0 0 7 0 0 
362 2 0.81432 12.4775 1.54915 24.7557 0 0 0 -1.85723 -1.71711 0.94529 7 0 0 0 7 0 0 
448 1 -0.450114 12.2836 0.521241 31.9458 0 0 0 4.54337 -1.44905 1.19259 6 3 2 1 9 0 0 
1936 5 -0.30722 0.129823 2.95334 -6.77716 0 0 0 0 0 0 6 2 2 0 8 0 0 
1916 6 1.0726 0.596862 2.35111 -2.94563 0 0 0 0 0 0 7 0 0 0 7 0 0 
1013 1 -0.403992 0.598996 2.76103 2.11625 0 0 0 1.85763 -1.2607 3.35637 7 3 0 3 10 0 0 
235 1 -0.5684 0.475018 2.99211 21.8676 0 0 0 0.163639 -0.832729 -4.93334 4 4 0 4 8 0 0 
418 1 -0.543838 0.322682 2.42066 25.928 0 0 0 4.21498 -0.188512 2.60908 1 4 0 4 5 0 0 
445 1 -0.569533 0.760452 3.02084 30.96 0 0 0 0.572856 2.25339 -3.23521 6 4 2 2 10 0 0 
2351 3 -0.206135 0.0255093 1.66504 38.722 0 0 0 -1.10668 -1.66521 -8.33324 8 1 1 0 9 0 0 
1861 5 -0.325909 1.21377 2.30287 -1.01995 0 0 0 0 0 0 7 2 2 0 9 0 0 
201 2 0.853405 0.853065 2.75664 8.49512 0 0 0 0.522072 0.39703 -1.39831 6 0 0 0 6 0 0 
198 2 0.834245 0.811807 3.07465 14.5787 0 0 0 0.554295 -0.497221 0.968479 7 0 0 0 7 0 0 
346 1 -0.34537 1.3118 2.52369 33.5909 0 0 0 2.78752 6.26217 3.9476 6 2 2 0 8 0 0 
3011 3 -0.475545 1.49867 2.57891 40.6055 0 0 0 -5.51207 0.759413 -1.42561 8 3 3 0 11 0 0 
2342 4 1.12102 1.31395 1.80371 36.9247 0 0 0 0.209491 1.37972 1.01019 6 0 0 0 6 0 0 
3474 4 1.04727 0.90667 1.92902 47.6509 0 0 0 0.458075 -0.346407 -0.79453 6 0 0 0 6 0 0 
3460 9 -0.181732 0.955826 2.53659 50.7078 0 0 0 0 0 0 7 1 1 0 8 0 0 
2469 9 -0.356794 1.3669 2.80468 59.7112 0 0 0 0 0 0 3 2 2 0 5 0 0 
3084 10 1.04932 0.835443 2.55907 57.7348 0 0 0 0 0 0 7 0 0 0 7 0 0 
1820 5 -0.393555 2.29364 1.75756 -7.90413 0 0 0 0 0 0 5 3 3 0 8 0 0 
1871 5 -0.446802 1.98802 2.1715 -4.4454 0 0 0 0 0 0 5 3 3 0 8 0 0 
156 2 0.852896 2.08964 2.79668 11.4985 0 0 0 -2.40561 -0.919129 -0.215083 8 0 0 0 8 0 0 
124 1 -0.519375 2.32982 2.1272 13.3838 0 0 0 -2.29333 -6.50075 0.553793 7 4 0 4 11 0 0 
3023 3 -0.388672 2.18332 2.24396 43.0155 0 0 0 -1.96555 5.92341 1.49576 5 3 3 0 8 0 0 
3485 9 -0.413687 2.30675 2.04141 56.328 0 0 0 0 0 0 7 3 3 0 10 0 0 
86 2 0.868027 2.40438 2.63296 3.29843 0 0 0 -0.874138 0.750376 -0.446888 7 0 0 0 7 0 0 
23 1 -0.496907 2.55194 3.0406 7.56363 0 0 0 4.28015 -0.925542 2.02123 3 3 0 3 6 0 0 
151 1 -0.481833 2.3807 3.05696 15.8893 0 0 0 -8.67861 -1.90446 2.74718 4 3 0 3 7 0 0 
250 1 -0.438167 2.9924 1.61326 18.277 0 0 0 -5.40823 2.13015 -1.94077 3 3 0 3 6 0 0 
3418 4 1.07147 2.47797 2.29956 32.0998 0 0 0 -0.775655 1.12158 -0.469538 7 0 0 0 7 0 0 
2358 3 -0.346378 2.83418 1.83258 35.7146 0 0 0 3.38971 -1.65442 -3.38201 5 2 2 0 7 0 0 
2456 3 -0.52779 2.75527 2.34917 47.4184 0 0 0 2.12833 -0.262802 2.67856 7 3 3 0 10 0 0 
2437 10 1.0735 2.81319 1.5826 50.598 0 0 0 0 0 0 7 0 0 0 7 0 0 
3049 9 -0.486701 2.67552 2.23409 52.6073 0 0 0 0 0 0 5 3 3 0 8 0 0 
1866 6 1.03268 3.23203 2.67604 -1.04386 0 0 0 0 0 0 7 0 0 0 7 0 0 
372 1 -0.503013 3.59158 2.07605 26.8132 0 0 0 -3.1772 1.69617 2.83923 3 4 0 4 7 0 0 
381 1 -0.531769 3.69028 1.97229 30.6409 0 0 0 -5.66258 4.17709 6.64651 5 4 2 2 9 0 0 
3066 10 0.928056 3.28341 2.79106 59.2624 0 0 0 0 0 0 5 0 0 0 5 0 0 
1825 5 -0.553103 4.33362 2.73308 -9.00847 0 0 0 0 0 0 4 3 3 0 7 0 0 
1862 5 -0.508854 4.17963 2.44494 -6.12297 0 0 0 0 0 0 7 4 4 0 11 0 0 
1908 5 -0.597466 4.43932 2.71865 -2.80175 0 0 0 0 0 0 6 4 4 0 10 0 0 
144 1 -0.458856 4.03757 1.69463 11.3028 0 0 0 -7.79078 -3.48417 2.67751 6 4 0 4 10 0 0 
130 2 0.83974 3.99313 2.74993 14.4388 0 0 0 -1.33493 -0.706291 2.09674 7 0 0 0 7 0 0 
261 1 -0.494468 3.99576 2.58949 21.1422 0 0 0 -2.93929 -5.13961 -0.42395 5 4 0 4 9 0 0 
3019 3 -0.271489 3.92718 1.64929 39.7228 0 0 0 -0.795186 5.57776 -1.12607 5 3 3 0 8 0 0 
2387 4 1.08979 4.09419 2.16549 42.4668 0 0 0 0.0721586 -1.83499 -0.479872 6 0 0 0 6 0 0 
2450 4 1.08776 4.60478 1.64028 47.6487 0 0 0 1.05964 -2.57498 -0.519724 6 0 0 0 6 0 0 
2470 9 -0.467286 4.174 2.63235 54.6428 0 0 0 0 0 0 7 4 4 0 11 0 0 
2487 9 -0.548511 4.49305 2.47126 57.6906 0 0 0 0 0 0 7 4 4 0 11 0 0 
1930 5 -0.496397 4.98062 2.52879 -0.0780096 0 0 0 0 0 0 4 3 2 1 7 0 0 
3 1 -0.367134 4.71024 1.97591 3.27864 0 0 0 -1.06003 -6.58946 -4.75247 5 3 0 3 8 0 0 
168 2 0.855031 5.21598 2.81698 9.97451 0 0 0 0.465916 1.66927 0.359036 7 0 0 0 7 0 0 
114 1 -0.487663 5.44247 1.93344 15.7899 0 0 0 1.72751 -5.70975 -0.687946 3 4 0 4 7 0 0 
241 1 -0.53587 4.96163 2.72121 24.3384 0 0 0 -2.6736 -3.1706 -1.4121 5 5 0 5 10 0 0 
358 1 -0.471684 4.98779 3.1071 28.7727 0 0 0 3.98179 9.73975 0.0825109 7 3 0 3 10 0 0 
3408 3 -0.382659 4.84985 2.1875 37.1458 0 0 0 -2.36702 2.98123 -3.78571 6 2 2 0 8 0 0 
3432 3 -0.242708 5.14131 3.0717 46.4726 0 0 0 5.88585 7.17939 -0.901167 6 2 2 0 8 0 0 
2435 9 -0.416952 4.96327 2.5233 51.5967 0 0 0 0 0 0 5 3 3 0 8 0 0 
1829 6 0.903682 6.05792 2.14666 -9.73417 0 0 0 0 0 0 4 0 0 0 4 0 0 
75 2 0.818473 6.13339 2.77672 6.70304 0 0 0 1.292 1.73064 1.96495 6 0 0 0 6 0 0 
276 2 0.813585 6.18162 2.12786 17.5931 0 0 0 -2.35515 0.870999 0.507308 5 0 0 0 5 0 0 
231 1 -0.540445 6.22992 2.09165 19.6285 0 0 0 -0.666507 -5.40733 -0.652907 6 4 0 4 10 0 0 
229 2 0.773361 6.02871 2.14255 22.4473 0 0 0 2.90868 0.468155 1.40584 6 0 0 0 6 0 0 
3015 3 -0.414587 6.21021 2.80782 34.8367 0 0 0 -1.88115 2.159 -3.16067 4 3 3 0 7 0 0 
3439 4 1.09101 5.8696 2.45741 38.784 0 0 0 0.0272635 -2.29255 0.888483 7 0 0 0 7 0 0 
3021 3 -0.485699 6.07664 2.40937 42.8238 0 0 0 1.33751 7.90909 -6.06632 4 3 3 0 7 0 0 
2438 3 -0.473292 5.95288 2.65469 48.9579 0 0 0 5.6896 -0.248127 -7.15945 7 3 3 0 10 0 0 
1827 5 -0.295256 6.77201 2.29204 -7.39996 0 0 0 0 0 0 6 2 2 0 8 0 0 
1900 5 -0.467786 6.55336 1.73587 -4.69122 0 0 0 0 0 0 4 3 3 0 7 0 0 
1925 6 1.11052 6.8785 2.16341 -0.167641 0 0 0 0 0 0 7 0 0 0 7 0 0 
70 1 -0.506993 6.95596 1.64902 1.56795 0 0 0 0.676864 0.775597 -2.24491 6 3 1 2 9 0 0 
44 2 0.879227 6.91465 2.56883 3.37506 0 0 0 -0.320245 1.28987 -0.157342 7 0 0 0 7 0 0 
134 1 -0.476591 6.99427 1.76837 8.25448 0 0 0 -0.445765 4.97606 1.72915 4 4 0 4 8 0 0 
188 1 -0.420764 6.83682 2.08439 11.1137 0 0 0 -5.69742 2.96627 0.103744 4 4 0 4 8 0 0 
375 1 -0.477668 6.53601 2.48336 26.6869 0 0 0 1.17379 -1.70043 -1.87693 5 3 0 3 8 0 0 
3491 9 -0.391247 6.76971 1.82633 55.8945 0 0 0 0 0 0 6 2 2 0 8 0 0 
3490 9 -0.362423 6.69637 1.95896 58.6362 0 0 0 0 0 0 5 3 3 0 8 0 0 
1891 5 -0.42813 7.11229 2.80089 -2.1256 0 0 0 0 0 0 5 3 3 0 8 0 0 
162 2 0.81874 7.06942 2.57928 14.6653 0 0 0 -0.204212 0.324494 -0.509485 5 0 0 0 5 0 0 
304 1 -0.565077 7.66398 2.58982 23.8614 0 0 0 1.19218 4.59981 1.76878 4 4 0 4 8 0 0 
3427 4 1.06835 7.79909 1.86639 31.5078 0 0 0 0.0670561 -1.22916 -0.734699 7 0 0 0 7 0 0 
388 1 -0.49062 7.53752 2.89738 29.8274 0 0 0 4.43624 -0.835565 -0.841693 5 3 1 2 8 0 0 
2400 3 -0.295981 7.60471 2.76077 45.1869 0 0 0 2.78498 4.43437 -3.21404 4 2 2 0 6 0 0 
2439 9 -0.249663 7.21104 2.41043 53.3751 0 0 0 0 0 0 6 1 1 0 7 0 0 
51 1 -0.485883 8.60649 2.65562 6.35676 0 0 0 -4.81771 1.27778 0.586442 3 4 0 4 7 0 0 
299 1 -0.538677 7.88637 2.73675 16.7179 0 0 0 5.63701 6.92976 -0.269707 5 4 0 4 9 0 0 
294 2 0.806134 8.23722 2.15846 20.0128 0 0 0 0.624369 -0.304465 1.45893 6 0 0 0 6 0 0 
409 2 0.881417 8.05152 2.01207 27.9903 0 0 0 -0.313977 2.09705 1.06619 6 0 0 0 6 0 0 
2442 9 -0.313672 8.39168 1.63456 50.1752 0 0 0 0 0 0 7 2 2 0 9 0 0 
1924 5 -0.376136 9.05481 2.2919 -5.44265 0 0 0 0 0 0 6 2 2 0 8 0 0 
59 1 -0.422431 8.95986 1.59795 3.31807 0 0 0 -0.387643 4.08331 -1.16321 6 3 0 3 9 0 0 
120 2 0.849174 9.10385 2.31061 8.5528 0 0 0 0.214866 -0.768383 -0.268468 6 0 0 0 6 0 0 
141 1 -0.466821 9.34067 2.63068 12.2543 0 0 0 3.23213 1.89286 -1.34764 3 3 0 3 6 0 0 
369 1 -0.414069 9.16092 1.79101 26.3303 0 0 0 2.95816 4.18388 -1.93017 6 3 0 3 9 0 0 
3413 3 -0.210974 8.93669 2.045 35.9652 0 0 0 2.96885 1.21678 8.81884 3 1 1 0 4 0 0 
2394 3 -0.39447 8.70571 2.10382 42.9835 0 0 0 -0.164155 -0.620369 0.0048518 6 3 3 0 9 0 0 
1824 5 -0.296369 9.42046 2.75511 -8.03584 0 0 0 0 0 0 6 2 2 0 8 0 0 
1890 6 1.08453 10.0861 2.06466 -0.862733 0 0 0 0 0 0 8 0 0 0 8 0 0 
317 1 -0.5033 10.1503 1.55979 18.9943 0 0 0 5.55472 2.64766 1.09059 3 4 0 4 7 0 0 
285 1 -0.62451 9.75556 2.84019 21.3495 0 0 0 3.19225 0.853873 1.31064 1 4 0 4 5 0 0 
2433 9 -0.296009 9.77918 2.68682 52.7769 0 0 0 0 0 0 5 2 2 0 7 0 0 
3503 9 -0.413219 9.43037 2.24772 55.6059 0 0 0 0 0 0 6 3 3 0 9 0 0 
3079 9 -0.421776 9.51589 2.74498 58.7605 0 0 0 0 0 0 5 2 2 0 7 0 0 
65 2 0.897909 10.9246 1.62464 3.81634 0 0 0 0.631403 -1.81045 -2.13037 7 0 0 0 7 0 0 
206 1 -0.427687 10.3919 1.59976 10.0526 0 0 0 2.27962 -4.30726 2.71583 7 4 0 4 11 0 0 
252 1 -0.54388 10.5381 1.91535 24.0535 0 0 0 2.23886 0.86152 0.421348 2 4 0 4 6 0 0 
391 2 0.816466 10.6422 2.42906 30.2847 0 0 0 -1.20749 -1.74627 0.804125 6 0 0 0 6 0 0 
3026 3 -0.322212 10.2757 1.75901 45.1887 0 0 0 -4.45997 -0.310108 -0.121472 6 2 2 0 8 0 0 
3074 10 1.09908 10.5001 1.82277 57.3661 0 0 0 0 0 0 7 0 0 0 7 0 0 
1806 6 1.01301 11.1571 1.80164 -8.41236 0 0 0 0 0 0 6 0 0 0 6 0 0 
1880 5 -0.440825 11.5986 2.41289 -6.64372 0 0 0 0 0 0 7 3 3 0 10 0 0 
102 1 -0.514099 11.0868 2.70496 7.68446 0 0 0 -3.23652 0.0772369 0.321237 5 4 0 4 9 0 0 
2384 3 -0.398875 11.4869 2.22572 42.216 0 0 0 5.07851 -4.36117 3.9823 5 3 3 0 8 0 0 
2413 10 1.0802 11.3401 1.5741 52.1335 0 0 0 0 0 0 7 0 0 0 7 0 0 
1845 5 -0.355728 12.329 2.82585 -1.91622 0 0 0 0 0 0 7 2 2 0 9 0 0 
931 1 -0.443986 12.1305 2.73703 2.71319 0 0 0 0.574123 3.6617 2.47082 6 3 0 3 9 0 0 
1011 1 -0.536484 12.3353 2.23001 5.24686 0 0 0 9.66275 -1.88452 1.65978 7 4 0 4 11 0 0 
212 1 -0.492911 11.958 1.90464 13.7471 0 0 0 2.45504 1.53646 1.79942 5 4 0 4 9 0 0 
416 1 -0.474526 11.7867 2.102 26.8211 0 0 0 0.54139 2.2646 -5.84488 4 4 0 4 8 0 0 
2345 4 1.06397 12.1198 2.1897 33.3565 0 0 0 -2.56903 1.65314 1.19361 6 0 0 0 6 0 0 
366 1 -0.44766 12.3255 2.01512 29.4121 0 0 0 -0.0277558 -6.72838 -0.549647 4 3 0 3 7 0 0 
3016 3 -0.260539 11.9223 2.5608 36.4918 0 0 0 1.26555 -6.17622 -1.77125 5 1 1 0 6 0 0 
2408 4 1.02047 12.2374 1.71145 43.915 0 0 0 -0.365907 0.306399 1.01532 8 0 0 0 8 0 0 
3071 9 -0.429895 11.8229 2.5958 54.3991 0 0 0 0 0 0 8 3 3 0 11 0 0 
1932 5 -0.406937 0.203692 4.43928 -4.49393 0 0 0 0 0 0 9 3 3 0 12 0 0 
1934 5 -0.37034 0.0220657 4.61709 -0.00290409 0 0 0 0 0 0 4 2 2 0 6 0 0 
190 1 -0.447783 0.599042 3.95639 12.6335 0 0 0 -1.97977 -4.05586 -1.16399 5 4 0 4 9 0 0 
306 2 0.818044 0.230168 3.41548 19.0235 0 0 0 -1.58762 0.403184 -0.892933 5 0 0 0 5 0 0 
1259 2 0.822759 0.665474 4.22144 26.8054 0 0 0 2.21343 0.0577013 0.462274 6 0 0 0 6 0 0 
343 2 0.800659 0.43247 3.26927 23.9128 0 0 0 1.57491 -0.136311 0.951458 6 0 0 0 6 0 0 
3005 3 -0.364508 0.295837 3.4616 36.4412 0 0 0 -0.690484 -1.04468 10.8052 2 2 2 0 4 0 0 
2376 3 -0.385444 0.575303 3.40042 46.0464 0 0 0 3.63439 5.30261 1.68494 5 3 3 0 8 0 0 
3506 9 -0.321816 0.459843 3.16613 53.5724 0 0 0 0 0 0 6 2 2 0 8 0 0 
3505 9 -0.480837 0.588881 4.05957 56.1078 0 0 0 0 0 0 7 3 3 0 10 0 0 
28 1 -0.464575 1.13169 3.60859 4.72981 0 0 0 -1.09854 2.34828 0.607973 4 4 0 4 8 0 0 
208 1 -0.491355 1.07285 4.10962 10.0835 0 0 0 -1.33949 -0.140881 1.35612 7 4 0 4 11 0 0 
390 1 -0.436026 1.52202 3.1973 28.4451 0 0 0 -0.0887362 6.84675 -5.29099 4 4 0 4 8 0 0 
1911 5 -0.480541 2.32441 4.45304 -6.31594 0 0 0 0 0 0 6 3 3 0 9 0 0 
1902 5 -0.530192 2.16969 3.94486 -2.58039 0 0 0 0 0 0 7 4 4 0 11 0 0 
258 1 -0.481525 2.09926 3.86453 19.6579 0 0 0 2.73708 0.19474 3.91629 4 3 0 3 7 0 0 
2336 3 -0.455675 2.2928 3.13717 38.0065 0 0 0 -6.81061 1.40009 -7.73901 7 2 2 0 9 0 0 
2425 3 -0.107092 1.7735 4.66468 48.2694 0 0 0 0.519781 5.69568 0.598449 7 0 0 0 7 0 0 
55 1 -0.264309 2.78419 3.35479 0.765519 0 0 0 5.3246 -3.85246 2.34763 5 3 1 2 8 0 0 
268 2 0.828291 2.92286 3.60657 17.6925 0 0 0 -0.936663 -0.734506 -1.62521 5 0 0 0 5 0 0 
238 2 0.813596 2.41399 3.90791 21.5294 0 0 0 -0.513873 0.0423537 0.769005 6 0 0 0 6 0 0 
312 1 -0.596391 2.38353 3.23995 23.7264 0 0 0 -0.0777225 0.024298 -1.54623 4 4 0 4 8 0 0 
339 1 -0.538201 2.62208 4.63908 26.0903 0 0 0 1.64768 -0.757817 -0.657216 3 4 0 4 7 0 0 
426 1 -0.529517 2.83144 4.3356 31.5844 0 0 0 -1.39578 -3.75698 -0.352576 5 4 2 2 9 0 0 
2403 4 1.11671 2.82002 3.72679 39.7185 0 0 0 1.43259 0.364712 0.562765 7 0 0 0 7 0 0 
3405 3 -0.383725 2.818 4.61939 35.6268 0 0 0 0.435984 1.7671 3.92398 5 3 3 0 8 0 0 
2399 4 1.06623 2.68909 3.33521 45.3784 0 0 0 2.04434 0.148564 1.26149 8 0 0 0 8 0 0 
3082 9 -0.478635 2.60802 4.55348 54.3348 0 0 0 0 0 0 6 3 3 0 9 0 0 
3493 9 -0.544641 2.49021 4.10581 57.8748 0 0 0 0 0 0 7 4 4 0 11 0 0 
1828 6 1.10025 3.58572 3.80407 -7.64893 0 0 0 0 0 0 6 0 0 0 6 0 0 
1867 6 1.0436 3.30649 3.60981 -4.52639 0 0 0 0 0 0 7 0 0 0 7 0 0 
42 1 -0.351088 3.37375 4.38177 3.41503 0 0 0 -7.01421 -1.33133 0.996989 7 2 0 2 9 0 0 
121 1 -0.447778 3.55487 4.02207 10.3331 0 0 0 1.21246 -1.68258 -4.11324 3 3 0 3 6 0 0 
207 1 -0.412542 3.30631 4.58552 13.0791 0 0 0 -2.78294 3.7264 3.44561 4 4 0 4 8 0 0 
364 2 0.812853 3.73948 4.64441 24.2068 0 0 0 -0.311478 0.833191 1.47973 7 0 0 0 7 0 0 
2416 3 -0.278115 3.36615 3.29624 49.7948 0 0 0 -0.670861 2.91781 -2.4793 8 1 1 0 9 0 0 
2440 10 1.08047 3.80552 3.93348 52.6778 0 0 0 0 0 0 7 0 0 0 7 0 0 
2473 10 1.09129 3.46069 3.80763 56.0732 0 0 0 0 0 0 7 0 0 0 7 0 0 
13 1 -0.438306 4.38834 3.54217 5.71235 0 0 0 4.3751 -1.25828 3.49228 6 3 0 3 9 0 0 
187 1 -0.447001 4.69452 4.49422 15.4747 0 0 0 0.0961088 9.54194 4.59633 8 3 0 3 11 0 0 
423 2 0.836221 4.18492 4.1373 27.2541 0 0 0 1.88914 -0.602804 0.348609 6 0 0 0 6 0 0 
360 1 -0.531611 3.96806 3.31449 33.6114 0 0 0 7.54547 6.56379 -1.4471 7 4 4 0 11 0 0 
3008 4 1.07336 4.31668 3.31362 35.6301 0 0 0 0.78211 -1.43901 -0.147503 6 0 0 0 6 0 0 
3429 3 -0.471662 4.52372 4.23007 38.7327 0 0 0 4.25519 1.17501 -5.29105 6 3 3 0 9 0 0 
3435 3 -0.433537 3.98757 3.68165 41.3909 0 0 0 -1.72309 -3.91358 2.03317 6 2 2 0 8 0 0 
3433 3 -0.301836 4.18275 3.55647 44.122 0 0 0 -1.48205 -0.833905 3.84471 8 2 2 0 10 0 0 
3486 9 -0.466208 4.43574 4.40931 59.504 0 0 0 0 0 0 4 3 3 0 7 0 0 
1840 5 -0.524858 5.22902 4.62207 -7.10542 0 0 0 0 0 0 5 3 3 0 8 0 0 
1906 5 -0.507165 5.17548 4.27486 -4.56039 0 0 0 0 0 0 5 3 3 0 8 0 0 
85 2 0.84311 5.09465 4.6492 0.720891 0 0 0 0.2377 1.75347 -1.18509 7 0 0 0 7 0 0 
108 1 -0.47773 5.39169 3.96112 8.18643 0 0 0 2.07359 -0.196051 7.49236 5 4 0 4 9 0 0 
324 1 -0.57097 4.87239 3.73584 18.0784 0 0 0 4.62252 2.30993 3.91088 3 4 0 4 7 0 0 
322 2 0.807207 5.30286 4.05058 20.1103 0 0 0 0.760033 -0.695694 -0.581073 7 0 0 0 7 0 0 
425 2 0.807688 4.72495 3.82575 30.5854 0 0 0 -0.929154 0.617491 0.325647 6 0 0 0 6 0 0 
1865 6 1.03422 5.81927 4.37967 -2.46894 0 0 0 0 0 0 7 0 0 0 7 0 0 
77 1 -0.45158 5.83065 4.01492 2.37574 0 0 0 -2.18779 1.7388 -1.45084 7 3 0 3 10 0 0 
199 1 -0.506466 6.09254 4.64212 10.6904 0 0 0 -4.6058 -4.26084 -2.68711 5 4 0 4 9 0 0 
116 1 -0.425238 5.72809 3.42509 13.241 0 0 0 -6.08634 -3.87829 -1.1443 3 3 0 3 6 0 0 
392 1 -0.535695 6.16222 3.35846 32.0185 0 0 0 4.28924 -7.21495 -3.28327 5 4 3 1 9 0 0 
2457 9 -0.484134 5.5784 4.56866 53.4268 0 0 0 0 0 0 4 3 3 0 7 0 0 
3497 9 -0.502609 5.50836 4.19966 56.1782 0 0 0 0 0 0 8 3 3 0 11 0 0 
2472 10 1.02964 6.06197 3.91353 58.1782 0 0 0 0 0 0 7 0 0 0 7 0 0 
1805 5 -0.35513 6.62767 4.00303 -9.45241 0 0 0 0 0 0 4 2 2 0 6 0 0 
1877 6 1.07305 6.45654 3.53175 -5.79929 0 0 0 0 0 0 7 0 0 0 7 0 0 
2 1 -0.557345 6.82672 3.80258 4.94783 0 0 0 -10.1989 -0.844423 -2.73083 5 4 0 4 9 0 0 
270 1 -0.529343 7.03215 3.76889 21.449 0 0 0 4.60318 4.66535 0.572686 3 4 0 4 7 0 0 
344 2 0.852611 6.81778 3.83548 25.1402 0 0 0 -1.01475 -1.8134 -3.94746 6 0 0 0 6 0 0 
2340 4 1.06571 6.9955 4.59873 33.5425 0 0 0 2.26583 1.42348 0.433915 7 0 0 0 7 0 0 
2375 3 -0.506888 6.41623 3.65679 40.3081 0 0 0 -0.36612 3.80501 -1.02317 7 4 4 0 11 0 0 
3040 4 1.05096 7.0095 4.42313 48.6544 0 0 0 1.5077 1.01015 0.429206 7 0 0 0 7 0 0 
3042 9 -0.366869 7.03874 3.7892 50.9563 0 0 0 0 0 0 6 3 3 0 9 0 0 
3488 10 1.12237 6.66434 3.52793 54.7876 0 0 0 0 0 0 7 0 0 0 7 0 0 
1914 5 -0.376172 7.77398 4.30295 -4.1304 0 0 0 0 0 0 6 3 3 0 9 0 0 
3422 3 -0.397843 7.22943 3.60529 37.7914 0 0 0 6.61466 2.63114 1.17982 4 2 2 0 6 0 0 
2407 4 1.04975 7.14674 4.11097 42.0027 0 0 0 -1.15395 -0.493425 0.0475645 7 0 0 0 7 0 0 
3067 9 -0.372527 7.23269 4.25777 59.8324 0 0 0 0 0 0 3 2 2 0 5 0 0 
1935 5 -0.464377 7.96463 4.65603 -6.81074 0 0 0 0 0 0 6 3 3 0 9 0 0 
61 1 -0.501389 8.55934 3.21605 0.121638 0 0 0 -6.25199 3.20339 0.297492 8 3 3 0 11 0 0 
35 1 -0.363739 8.37947 4.02732 2.63261 0 0 0 7.38037 3.38245 -11.5312 6 2 0 2 8 0 0 
129 1 -0.498633 8.55702 3.82954 9.59134 0 0 0 -1.78735 -2.63202 4.34414 1 3 0 3 4 0 0 
143 2 0.846074 7.97276 4.02278 11.604 0 0 0 -1.20071 0.276504 1.69111 7 0 0 0 7 0 0 
123 1 -0.536774 8.36837 3.9429 14.1626 0 0 0 2.459 0.277161 3.6729 4 4 0 4 8 0 0 
325 1 -0.487293 8.49439 3.88513 19.0586 0 0 0 0.228453 -0.804513 0.80492 4 3 0 3 7 0 0 
379 1 -0.520052 8.40951 4.28301 26.3168 0 0 0 3.34658 -1.93668 -0.52601 5 3 0 3 8 0 0 
2356 3 -0.417699 8.48574 3.37501 33.1411 0 0 0 -3.45505 0.473311 -1.43521 7 3 3 0 10 0 0 
2369 4 1.09493 8.5476 4.62799 38.7949 0 0 0 -1.49636 0.8906 -0.165146 7 0 0 0 7 0 0 
2429 3 -0.193511 8.30281 3.17546 47.9012 0 0 0 1.30361 -2.02718 3.74554 5 1 1 0 6 0 0 
3089 9 -0.451958 8.34874 4.51124 54.4934 0 0 0 0 0 0 6 3 3 0 9 0 0 
3499 9 -0.500436 7.95354 4.15499 57.1602 0 0 0 0 0 0 5 4 4 0 9 0 0 
97 2 0.83579 8.68175 4.50469 5.45668 0 0 0 -0.216163 -0.284122 -0.0273224 6 0 0 0 6 0 0 
277 2 0.848478 9.01936 4.49277 17.0474 0 0 0 0.0599438 1.09453 -0.853961 7 0 0 0 7 0 0 
319 2 0.797104 8.70481 4.01457 22.5737 0 0 0 0.562292 0.127101 -3.07761 6 0 0 0 6 0 0 
3027 3 -0.280619 8.81326 3.62866 40.771 0 0 0 2.08878 -1.11759 7.01492 6 2 2 0 8 0 0 
3500 10 1.01867 8.98239 4.43527 59.0934 0 0 0 0 0 0 5 0 0 0 5 0 0 
1848 6 1.07335 9.83582 4.06852 -6.09277 0 0 0 0 0 0 7 0 0 0 7 0 0 
1897 5 -0.441454 9.79139 3.66586 -2.06163 0 0 0 0 0 0 6 3 3 0 9 0 0 
400 1 -0.400963 9.82114 3.65454 28.4809 0 0 0 -3.06014 3.359 -0.281886 5 4 0 4 9 0 0 
399 1 -0.564876 9.61143 4.19639 30.8755 0 0 0 2.16751 -10.1504 -4.06592 7 4 1 3 11 0 0 
3409 3 -0.460719 9.83941 3.29248 38.1026 0 0 0 1.64007 -1.02048 -1.28831 6 3 3 0 9 0 0 
2366 4 1.09385 9.41296 3.41785 44.3368 0 0 0 0.279921 1.30828 0.896817 6 0 0 0 6 0 0 
2402 3 -0.369824 9.52998 4.60622 45.9052 0 0 0 -1.62662 0.951556 5.51659 6 2 2 0 8 0 0 
3050 9 -0.252021 9.87721 3.91698 50.2651 0 0 0 0 0 0 6 1 1 0 7 0 0 
3061 10 1.08319 10.1617 3.85119 54.5896 0 0 0 0 0 0 7 0 0 0 7 0 0 
91 1 -0.268359 10.7951 3.96957 0.929206 0 0 0 0.941028 -6.37346 -5.00824 4 3 2 1 7 0 0 
89 1 -0.494847 10.3236 3.70249 4.40091 0 0 0 1.5875 -1.96987 0.61989 5 4 0 4 9 0 0 
150 2 0.844216 10.2689 3.12085 14.1064 0 0 0 -0.116162 -0.747341 1.31434 6 0 0 0 6 0 0 
217 1 -0.553784 10.4615 3.20627 16.2738 0 0 0 -3.12331 -9.16822 7.88476 5 4 0 4 9 0 0 
313 1 -0.551056 10.9318 4.64032 18.5475 0 0 0 -6.76174 -2.78134 -0.52363 4 4 0 4 8 0 0 
347 2 0.838504 10.2073 3.54041 25.7668 0 0 0 -0.621151 1.76424 0.736705 8 0 0 0 8 0 0 
3017 3 -0.418746 10.8631 3.73656 34.3707 0 0 0 -4.32607 2.57974 -2.83294 5 3 3 0 8 0 0 
3453 4 1.04765 10.9621 4.19443 36.4932 0 0 0 0.427927 1.33553 1.11833 6 0 0 0 6 0 0 
1892 5 -0.494193 11.0176 3.80352 -4.48238 0 0 0 0 0 0 6 3 3 0 9 0 0 
14 2 0.861582 11.2401 4.65937 2.81431 0 0 0 -2.87082 -0.213916 -0.310338 6 0 0 0 6 0 0 
963 2 0.823499 11.7279 4.01518 6.03238 0 0 0 0.237832 0.906755 -0.0572939 7 0 0 0 7 0 0 
127 1 -0.502357 11.6645 4.5465 13.6804 0 0 0 -2.73913 -0.145248 4.67239 6 4 0 4 10 0 0 
247 2 0.792497 11.2943 3.42959 20.055 0 0 0 1.25912 0.470877 -1.68958 5 0 0 0 5 0 0 
3020 3 -0.270295 11.4747 3.86955 40.3568 0 0 0 6.18303 0.966013 -1.61267 7 2 2 0 9 0 0 
2378 3 -0.445654 11.2491 4.01764 44.0216 0 0 0 2.67326 0.607026 -0.00532696 8 3 3 0 11 0 0 
2453 4 1.06611 11.6467 4.21174 49.663 0 0 0 1.00059 -0.173733 0.941428 6 0 0 0 6 0 0 
3038 3 -0.307956 11.1613 3.19495 47.9448 0 0 0 5.0339 0.36121 3.25867 5 2 2 0 7 0 0 