ITEM: TIMESTEP
3310000
ITEM: NUMBER OF ATOMS
3783
ITEM: BOX BOUNDS pp pp ff
0.0000000000000000e+00 2.5084187741634910e+01
0.0000000000000000e+00 2.4878427395809343e+01
-1.0000000000000000e+01 8.0000000000000000e+01
ITEM: ATOMS id type q x y z ix iy iz vx vy vz v_Ocoord v_Mcoord v_Tacoord v_Hfcoord c_ncoord[11] c_locpot[1] c_locpot[2] 
1818 5 -0.280442 0.167498 0.256389 -8.93728 0 0 0 0 0 0 3 1 1 0 4 0.6 0 
1869 5 -0.53332 0.655626 0.338118 -2.8042 0 0 0 0 0 0 6 3 2 1 9 0.6 0 
201 2 0.747956 0.577428 0.866286 4.18501 0 0 0 -1.4383 -1.45154 -0.179158 6 0 0 0 6 0 0 
2364 4 1.12252 0.279909 0.340827 35.7296 0 0 0 1.10467 -0.456635 2.76211 8 0 0 0 8 0 0 
3469 9 -0.222255 0.302014 0.293553 52.0023 0 0 0 0 0 0 7 1 1 0 8 -0.6 0 
2351 3 -0.287868 0.489088 1.49067 37.7073 0 0 0 4.98565 0.0293802 -2.17699 8 2 2 0 10 0 0 
1893 5 -0.434529 1.32986 0.192039 -6.05707 0 0 0 0 0 0 6 2 2 0 8 0.6 0 
306 2 0.792643 1.42267 1.43456 12.4308 0 0 0 2.10664 -0.126108 0.539377 7 0 0 0 7 0 0 
588 1 -0.503373 0.927128 0.522427 16.6922 0 1 0 2.20715 -9.73056 1.34455 6 5 0 5 11 0 0 
1326 2 0.798949 1.30685 1.2955 24.5387 0 0 0 0.0797698 -1.74281 -0.367779 7 0 0 0 7 0 0 
1799 1 -0.263136 1.57586 1.22079 34.1454 1 1 0 5.85266 -3.13721 -1.52643 7 2 2 0 9 0 0 
2700 3 -0.414207 1.46238 1.39792 43.2433 1 0 0 0.704175 6.91659 2.83537 8 2 2 0 10 0 0 
2475 9 -0.331307 1.05794 0.628025 58.2808 0 0 0 0 0 0 6 2 2 0 8 -0.6 0 
3076 9 -0.430017 1.13701 0.766813 54.4535 0 0 0 0 0 0 6 3 3 0 9 -0.6 0 
584 1 -0.539606 1.53539 0.808766 10.1421 0 1 0 1.09987 2.36197 -6.46588 6 4 0 4 10 0 0 
1692 1 -0.534054 1.48912 0.025793 29.3454 1 1 0 -8.11957 -2.16048 3.11398 6 3 3 0 9 0 0 
688 1 -0.46883 1.58475 0.0894404 19.1128 0 1 0 5.39391 -3.58277 -6.50552 5 4 0 4 9 0 0 
1384 1 -0.528754 2.33756 0.774485 2.20238 0 0 0 1.18218 -0.184716 0.0401795 5 6 0 6 11 0 0 
2426 3 -0.188115 1.65084 0.526311 49.3146 0 0 0 -1.23114 3.52105 -2.91057 4 1 1 0 5 0 0 
3714 3 -0.489605 1.81703 1.32376 40.5502 1 0 0 5.08618 -4.57098 -10.5166 7 3 3 0 10 0 0 
303 1 -0.488606 1.72084 1.20347 22.4925 0 0 0 1.84754 9.25751 2.5663 6 4 1 3 10 0 0 
2342 4 1.06289 2.1148 1.16464 30.9825 0 0 0 0.663022 -0.0818262 0.481059 7 0 0 0 7 0 0 
1826 6 0.787894 2.82035 1.35825 -9.71148 0 0 0 0 0 0 3 0 0 0 3 0.6 0 
1905 5 -0.43934 3.12562 0.656879 -1.53567 0 0 0 0 0 0 3 2 1 1 5 0.6 0 
156 2 0.835915 2.45132 0.820065 7.07843 0 0 0 0.0637614 2.00746 1.6853 6 0 0 0 6 0 0 
2492 10 1.13658 3.03295 0.94751 54.0654 0 0 0 0 0 0 8 0 0 0 8 -0.6 0 
2336 3 -0.244475 3.06341 1.47671 38.3736 0 0 0 -1.25612 2.55545 4.01824 6 2 2 0 8 0 0 
1926 6 1.11276 3.22942 0.576211 -6.27741 0 0 0 0 0 0 7 0 0 0 7 0.6 0 
585 1 -0.553151 3.3162 0.559699 15.6279 0 1 0 2.72977 1.7902 1.75665 3 4 0 4 7 0 0 
376 2 0.839422 3.43222 0.998459 19.2911 0 0 0 -0.374166 -0.627199 0.787652 6 0 0 0 6 0 0 
3496 9 -0.315862 3.55188 0.82441 59.3525 0 0 0 0 0 0 4 2 2 0 6 -0.6 0 
418 1 -0.552446 3.18721 0.209835 24.5411 0 0 0 3.23294 -2.27058 -0.721816 5 4 0 4 9 0 0 
616 2 0.827436 3.48857 0.0536851 10.5304 0 1 0 0.666638 -0.799639 -0.369156 6 0 0 0 6 0 0 
759 1 -0.58586 3.79018 0.126227 21.1177 0 1 0 1.36058 3.5529 -2.21741 4 4 0 4 8 0 0 
372 1 -0.475111 3.06748 0.590481 27.2073 0 0 0 -7.3262 -1.71115 2.19648 7 4 2 2 11 0 0 
1881 5 -0.483368 4.02865 0.365068 -4.42717 0 0 0 0 0 0 5 3 3 0 8 0.6 0 
107 2 0.787988 4.55655 1.38694 1.59048 0 0 0 1.70816 -1.02182 0.446549 6 0 0 0 6 0 0 
414 2 0.849033 4.55385 1.5137 25.2367 0 0 0 -1.40076 -0.964712 -0.188888 7 0 0 0 7 0 0 
3470 3 -0.376453 4.43614 0.75608 49.9465 0 0 0 2.49463 -6.27198 -4.03871 5 2 2 0 7 0 0 
2478 9 -0.364324 4.4989 0.348633 56.0416 0 0 0 0 0 0 10 3 3 0 13 -0.6 0 
805 1 -0.40421 3.94414 0.744891 30.2534 0 0 0 -1.2529 2.52602 4.15359 7 2 2 0 9 0 0 
1812 5 -0.382837 4.7493 0.357605 -7.59754 0 0 0 0 0 0 6 2 2 0 8 0.6 0 
1870 6 1.06142 5.4291 1.00095 -3.18012 0 0 0 0 0 0 7 0 0 0 7 0.6 0 
2476 10 1.07328 5.14733 0.51148 58.0096 0 0 0 0 0 0 7 0 0 0 7 -0.6 0 
663 1 -0.527379 5.0541 0.520382 11.7349 0 1 0 -5.48112 0.463331 0.851412 4 4 0 4 8 0 0 
263 2 0.822321 5.18678 0.791152 16.5325 0 0 0 1.74838 1.13843 0.986646 6 0 0 0 6 0 0 
2371 3 -0.0412059 5.36454 1.175 44.9379 0 0 0 -5.57907 -2.75638 -7.73264 5 0 0 0 5 0 0 
3465 9 -0.252821 4.88682 0.639183 53.2963 0 0 0 0 0 0 8 1 1 0 9 -0.6 0 
660 2 0.812843 5.42373 0.774323 8.02665 0 1 0 -0.190368 0.562588 1.68983 6 0 0 0 6 0 0 
3435 3 -0.0446443 5.26275 1.57306 40.4617 0 0 0 -5.69486 9.34072 0.546872 7 0 0 0 7 0 0 
1884 5 -0.560707 6.0128 0.59889 -1.43104 0 0 0 0 0 0 5 4 3 1 9 0.6 0 
23 1 -0.588212 5.74821 0.965219 6.00475 0 0 0 -0.346113 1.64727 2.37718 2 4 0 4 6 0 0 
272 1 -0.547996 5.51268 1.01805 23.4912 0 0 0 -3.73777 -2.48576 -5.02697 4 4 0 4 8 0 0 
188 1 -0.495459 5.84679 0.493113 14.2976 0 0 0 -0.938005 4.92546 1.22059 3 4 0 4 7 0 0 
2521 3 -0.553396 5.98085 1.38242 34.3077 0 0 0 5.2047 3.62543 0.54077 7 3 3 0 10 0 0 
402 1 -0.346919 6.00754 1.05399 31.7183 0 0 0 1.62203 4.48998 5.26303 7 2 2 0 9 0 0 
3408 3 -0.316823 5.67027 0.815245 37.1052 0 0 0 -4.38863 -0.560599 3.26413 6 3 3 0 9 0 0 
2552 3 -0.358704 5.94215 0.000813655 42.4321 0 0 0 -1.16919 -9.83725 -0.100357 8 2 2 0 10 0 0 
1816 5 -0.380847 6.83056 0.226397 -9.23727 0 0 0 0 0 0 5 2 2 0 7 0.6 0 
70 1 -0.494867 6.60464 0.631865 2.29962 0 0 0 -0.824901 4.28296 3.20429 3 3 0 3 6 0 0 
51 1 -0.600209 6.82679 1.00926 9.40256 0 0 0 -4.58991 3.31425 8.38935 3 4 0 4 7 0 0 
670 2 0.822811 6.96173 0.176067 11.2772 0 0 0 -0.906771 -1.43686 0.71086 6 0 0 0 6 0 0 
324 1 -0.55358 6.74853 0.859524 17.6381 0 0 0 -1.02287 2.16607 -0.5735 3 4 0 4 7 0 0 
2441 10 1.15246 6.31568 1.46177 50.4833 0 0 0 0 0 0 7 0 0 0 7 -0.6 0 
2347 4 1.10024 6.89279 0.692665 27.3133 0 0 0 -0.0636748 0.43044 0.641561 7 0 0 0 7 0 0 
3467 3 -0.0272779 6.29394 0.602426 47.2698 0 0 0 -7.95372 4.56567 -0.513409 6 0 0 0 6 0 0 
407 2 0.827269 7.15389 0.57411 19.9781 0 0 0 1.61255 -0.83531 -0.562046 6 0 0 0 6 0 0 
2421 9 -0.328504 7.17582 0.25006 52.0375 0 0 0 0 0 0 6 2 2 0 8 -0.6 0 
3396 3 -0.417356 7.80137 0.416082 36.0489 0 0 0 3.26927 -2.90793 -1.74956 5 3 3 0 8 0 0 
1842 5 -0.441066 8.38255 0.0497362 -6.99822 0 0 0 0 0 0 6 3 3 0 9 0.6 0 
1885 6 1.10013 8.31149 0.482112 -5.03262 0 0 0 0 0 0 7 0 0 0 7 0.6 0 
1868 5 -0.591478 8.54344 0.771724 -0.51607 0 0 0 0 0 0 4 4 3 1 8 0.6 0 
98 1 -0.545986 8.3327 1.30717 4.71902 0 0 0 -0.166858 3.63121 5.78373 4 4 0 4 8 0 0 
218 1 -0.485678 8.27933 0.689309 15.2926 0 0 0 -7.01053 -0.383996 0.381299 3 4 0 4 7 0 0 
2481 10 1.15486 7.9244 0.174061 55.7445 0 0 0 0 0 0 7 0 0 0 7 -0.6 0 
370 1 -0.394294 8.50275 1.09671 32.1739 0 0 0 -3.95932 -1.25957 1.26724 6 2 2 0 8 0 0 
2495 3 -0.30479 8.22706 0.763417 41.3683 0 0 0 -1.77577 4.44543 -3.26008 7 2 2 0 9 0 0 
2474 9 -0.219279 8.53046 0.649621 60.4244 0 0 0 0 0 0 1 1 1 0 2 -0.6 0 
3439 4 1.1052 7.88331 1.28383 33.951 0 0 0 -0.76288 0.936206 -1.89841 7 0 0 0 7 0 0 
3502 9 -0.498501 8.72897 0.675267 57.5199 0 0 0 0 0 0 7 3 3 0 10 -0.6 0 
136 2 0.78931 8.87719 0.58407 8.60917 0 0 0 0.678768 -1.10251 -0.411446 6 0 0 0 6 0 0 
224 1 -0.484141 9.06908 0.342097 11.9557 0 0 0 0.04214 -3.45317 2.32313 5 3 0 3 8 0 0 
285 1 -0.528908 8.94426 0.940343 18.9501 0 0 0 0.240943 3.96669 4.86375 6 4 0 4 10 0 0 
791 1 -0.427709 8.93688 0.894761 27.4186 0 1 0 -6.24885 -3.42537 2.88848 6 3 3 0 9 0 0 
304 1 -0.553767 9.44729 1.42601 23.1272 0 0 0 2.76887 6.54519 2.49292 5 4 1 3 9 0 0 
3058 4 1.06991 8.85576 0.00219246 43.8068 0 1 0 -0.617284 -1.94984 0.042128 7 0 0 0 7 0 0 
2459 9 -0.392049 9.09294 0.0120927 54.2051 0 0 0 0 0 0 5 2 2 0 7 -0.6 0 
3566 3 -0.0290982 8.75952 0.27994 48.1038 0 1 0 -3.88169 -0.532469 5.2722 6 0 0 0 6 0 0 
106 1 -0.533868 9.4167 0.8846 2.20163 0 0 0 -0.802326 2.99704 -0.24293 1 4 0 4 5 0 0 
1821 5 -0.327658 9.81229 0.341125 -9.1223 0 0 0 0 0 0 4 2 2 0 6 0.6 0 
1923 5 -0.396644 9.58851 1.21719 -2.99592 0 0 0 0 0 0 7 3 3 0 10 0.6 0 
342 1 -0.445582 9.80422 0.0373428 29.9067 0 1 0 -3.94274 -3.07223 -5.27712 6 3 3 0 9 0 0 
3427 4 1.07663 9.46449 0.645143 25.1785 0 0 0 0.837409 2.27472 -2.59947 7 0 0 0 7 0 0 
2381 4 1.05784 9.77855 1.20899 36.8883 0 0 0 -0.0931978 1.62431 -0.963935 8 0 0 0 8 0 0 
3051 9 -0.316443 9.97361 0.179156 51.6997 0 0 0 0 0 0 8 2 2 0 10 -0.6 0 
3026 3 -0.161665 9.85415 0.419802 45.6336 0 0 0 6.2111 3.34371 1.82252 7 1 1 0 8 0 0 
284 2 0.784084 10.7981 1.35106 11.3727 0 0 0 0.977401 1.32864 0.307121 6 0 0 0 6 0 0 
3095 3 -0.412248 10.5232 1.30234 38.7674 0 0 0 -1.40464 -2.29909 3.15064 5 3 3 0 8 0 0 
1108 2 0.778827 10.2116 1.52019 5.49363 0 0 0 1.05431 0.228308 -0.902559 6 0 0 0 6 0 0 
1264 1 -0.459665 11.0367 0.0482131 32.1128 0 0 0 3.82198 0.339432 -4.39611 8 3 3 0 11 0 0 
1846 5 -0.605316 11.2173 0.393475 -0.946796 0 0 0 0 0 0 5 4 3 1 9 0.6 0 
1597 1 -0.506871 11.0775 0.285021 21.2909 0 1 0 4.85956 -3.76462 -6.94403 5 5 0 5 10 0 0 
373 1 -0.527162 11.6855 1.18324 28.7371 0 0 0 1.2493 3.61131 1.83536 7 4 4 0 11 0 0 
1232 1 -0.561652 11.2195 0.488971 26.3544 0 0 0 -2.49296 3.32162 0.773557 6 4 3 1 10 0 0 
3025 4 1.05423 11.1847 0.927402 33.8691 0 0 0 1.17899 -1.34323 0.316807 8 0 0 0 8 0 0 
2417 9 -0.212234 11.7162 1.31411 50.0999 0 0 0 0 0 0 7 2 2 0 9 -0.6 0 
2463 9 -0.333528 11.1931 0.865414 59.0255 0 0 0 0 0 0 4 2 2 0 6 -0.6 0 
1222 1 -0.590604 11.5387 1.59455 18.9743 0 0 0 0.534703 9.48722 -3.65916 4 4 0 4 8 0 0 
3312 3 -0.00680288 11.5536 0.356811 47.4388 0 1 0 -6.55706 3.88169 1.67763 5 0 0 0 5 0 0 
1927 5 -0.336219 12.1657 1.34918 -4.23881 0 0 0 0 0 0 6 2 2 0 8 0.6 0 
197 2 0.777185 12.4804 1.39852 7.55536 0 0 0 -0.328197 -1.4196 -1.3099 6 0 0 0 6 0 0 
1215 2 0.821747 12.2182 0.585796 14.5375 0 0 0 -0.194143 -0.0188621 0.712044 6 0 0 0 6 0 0 
933 1 -0.576391 11.8503 1.33625 9.5368 0 0 0 -0.250909 2.72067 -9.5172 2 4 0 4 6 0 0 
644 1 -0.479427 12.2672 0.279581 16.5878 0 1 0 4.70722 -2.15198 -4.03571 2 4 0 4 6 0 0 
252 1 -0.526721 12.3389 1.31886 23.8102 0 0 0 -5.7429 -7.08345 5.06584 4 4 0 4 8 0 0 
2726 3 -0.185874 12.4703 1.34193 44.6351 0 0 0 2.15642 -1.43831 -4.55867 6 1 1 0 7 0 0 
1936 5 -0.32316 0.129823 2.95334 -6.77716 0 0 0 0 0 0 6 2 2 0 8 0.6 0 
1916 6 1.12893 0.596862 2.35111 -2.94563 0 0 0 0 0 0 7 0 0 0 7 0.6 0 
1013 1 -0.596372 0.350558 2.72183 2.63164 0 0 0 -1.05366 3.23492 -6.9702 3 5 0 5 8 0 0 
788 1 -0.521969 0.576551 1.68568 26.5751 0 0 0 4.46841 2.27108 2.05765 4 3 2 1 7 0 0 
1659 1 -0.495922 0.345315 2.10509 20.2381 1 1 0 -1.70622 -0.123178 0.946194 6 4 1 3 10 0 0 
3005 3 -0.295235 0.267233 2.6263 35.4871 0 0 0 1.49776 -5.17764 3.7612 6 2 2 0 8 0 0 
1861 5 -0.540256 1.21377 2.30287 -1.01995 0 0 0 0 0 0 6 3 2 1 9 0.6 -1.87467e-17 
133 1 -0.599821 1.3905 2.553 7.61015 0 0 0 2.37246 4.59706 7.19288 1 4 0 4 5 0 0 
622 1 -0.52005 1.09093 1.84103 14.387 0 1 0 -2.45081 0.504704 -3.76414 3 4 0 4 7 0 0 
445 1 -0.492179 1.1757 2.65348 31.9181 0 0 0 -0.659086 -1.02772 -3.3432 7 3 3 0 10 0 0 
3442 3 -0.0627322 1.34731 1.61103 47.0524 0 0 0 0.00651536 3.54288 -2.59021 6 0 0 0 6 0 0 
3460 9 -0.129281 0.955826 2.53659 50.7078 0 0 0 0 0 0 7 1 1 0 8 -0.6 0 
3084 10 1.06251 0.835443 2.55907 57.7348 0 0 0 0 0 0 7 0 0 0 7 -0.6 0 
2469 9 -0.333427 1.3669 2.80468 59.7112 0 0 0 0 0 0 3 2 2 0 5 -0.6 0 
975 2 0.849607 0.911878 1.68382 0.852737 1 0 0 0.519636 0.932725 2.71391 7 0 0 0 7 0 0 
1820 5 -0.405704 2.29364 1.75756 -7.90413 0 0 0 0 0 0 5 3 3 0 8 0.6 0 
1871 5 -0.451054 1.98802 2.1715 -4.4454 0 0 0 0 0 0 5 3 3 0 8 0.6 0 
42 1 -0.582556 2.15251 1.82121 5.0014 0 0 0 -2.07874 -2.65586 1.02082 1 6 0 6 7 0 0 
198 2 0.798035 1.67936 2.79811 9.62827 0 0 0 0.542028 -0.963919 -0.260691 6 0 0 0 6 0 0 
328 2 0.849548 2.13675 2.09447 16.1367 0 0 0 0.107765 -0.728035 -0.964641 6 0 0 0 6 0 0 
3418 4 1.14593 2.19758 2.48943 27.5413 0 0 0 -1.00074 -1.51285 0.939648 6 0 0 0 6 0 0 
390 1 -0.52572 2.2046 2.60718 29.4334 0 0 0 -1.1975 3.30704 2.71561 7 3 3 0 10 0 0 
3485 9 -0.401797 2.30675 2.04141 56.328 0 0 0 0 0 0 7 3 3 0 10 -0.6 0 
86 2 0.746103 2.49108 3.00301 3.10607 0 0 0 -1.84608 0.871171 0.685464 7 0 0 0 7 0 0 
250 1 -0.513548 2.99984 2.73269 20.4942 0 0 0 0.990183 -0.272923 1.75942 7 5 0 5 12 0 0 
235 1 -0.539263 2.86556 2.7279 25.5231 0 0 0 7.13647 -0.631039 -3.505 6 4 1 3 10 0 0 
3049 9 -0.482916 2.67552 2.23409 52.6073 0 0 0 0 0 0 5 3 3 0 8 -0.6 0 
2437 10 1.12273 2.81319 1.5826 50.598 0 0 0 0 0 0 7 0 0 0 7 -0.6 0 
2399 4 1.10091 2.46844 2.62373 42.0362 0 0 0 0.918772 -1.96506 -0.508831 6 0 0 0 6 0 0 
3447 3 -0.053763 2.98222 2.59483 45.2572 0 0 0 2.32621 4.57722 0.239678 7 0 0 0 7 0 0 
1866 6 0.971366 3.23203 2.67604 -1.04386 0 0 0 0 0 0 7 0 0 0 7 0.6 -2.10736e-17 
13 1 -0.55474 3.90487 2.20873 7.27939 0 0 0 4.58235 3.34149 -10.7604 5 5 0 5 10 0 0 
147 1 -0.486624 3.81951 2.16852 13.2952 0 0 0 -2.75827 1.86249 0.369558 2 4 0 4 6 0 0 
3066 10 0.950346 3.28341 2.79106 59.2624 0 0 0 0 0 0 5 0 0 0 5 -0.6 0 
124 1 -0.555677 3.19842 2.36832 17.8558 0 0 0 -3.12843 6.24425 -2.8328 3 4 0 4 7 0 0 
881 1 -0.415748 3.76391 1.7365 32.7872 0 0 0 2.40976 -0.983166 -0.0332815 6 3 3 0 9 0 0 
2335 3 -0.360083 3.75025 1.75773 35.6592 0 0 0 -4.26216 2.19816 -6.57222 6 2 2 0 8 0 0 
138 1 -0.514838 3.69871 2.17148 10.1137 0 0 0 0.127601 7.8608 8.85808 6 4 0 4 10 0 0 
2456 3 -0.0516539 3.85347 2.18794 47.8199 0 0 0 2.5156 8.08809 0.979404 6 0 0 0 6 0 0 
3433 3 -0.360682 3.91419 1.66244 42.753 0 0 0 2.09067 -2.11092 -7.45038 6 2 2 0 8 0 0 
1825 5 -0.563864 4.33362 2.73308 -9.00847 0 0 0 0 0 0 4 3 3 0 7 0.6 0 
1862 5 -0.520321 4.17963 2.44494 -6.12297 0 0 0 0 0 0 7 4 4 0 11 0.6 0 
1908 5 -0.586397 4.43932 2.71865 -2.80175 0 0 0 0 0 0 6 4 4 0 10 0.6 0 
3 1 -0.584922 4.37351 1.63142 3.54946 0 0 0 5.77894 0.00734571 -7.93023 4 4 0 4 8 0 0 
444 2 0.805768 4.44797 1.73465 21.9806 0 0 0 -1.79071 -2.17997 1.3352 6 0 0 0 6 0 0 
2470 9 -0.455525 4.174 2.63235 54.6428 0 0 0 0 0 0 7 4 4 0 11 -0.6 0 
2487 9 -0.539629 4.49305 2.47126 57.6906 0 0 0 0 0 0 7 4 4 0 11 -0.6 0 
1930 5 -0.699646 4.98062 2.52879 -0.0780096 0 0 0 0 0 0 4 4 2 2 8 0.6 0 
75 2 0.806615 4.77737 2.56883 5.25551 0 0 0 0.0793683 -0.236685 -0.422486 6 0 0 0 6 0 0 
276 2 0.822988 4.82292 2.68329 11.6941 0 0 0 0.480192 0.589046 0.341492 7 0 0 0 7 0 0 
114 1 -0.542013 5.15346 2.71823 16.0686 0 0 0 6.6362 3.24354 -6.37869 2 3 0 3 5 0 0 
375 1 -0.427687 5.33562 2.07312 27.2297 0 0 0 4.97155 0.231622 8.11337 6 3 1 2 9 0 0 
3008 4 1.04471 5.08426 2.90945 31.9646 0 0 0 0.716204 0.58613 -0.730757 6 0 0 0 6 0 0 
2435 9 -0.401756 4.96327 2.5233 51.5967 0 0 0 0 0 0 5 3 3 0 8 -0.6 0 
2403 4 1.09016 5.37031 2.86243 35.3043 0 0 0 -0.516738 -1.574 -1.09355 7 0 0 0 7 0 0 
1829 6 0.86886 6.05792 2.14666 -9.73417 0 0 0 0 0 0 4 0 0 0 4 0.6 0 
3033 3 -0.234948 6.09305 2.5099 48.914 0 0 0 -1.14978 1.5609 -2.8733 6 1 1 0 7 0 0 
281 1 -0.413521 5.56311 1.95503 19.9292 0 0 0 -1.36976 -2.66231 4.93588 3 4 0 4 7 0 0 
1827 5 -0.307509 6.77201 2.29204 -7.39996 0 0 0 0 0 0 6 2 2 0 8 0.6 0 
1900 5 -0.476562 6.55336 1.73587 -4.69122 0 0 0 0 0 0 4 3 3 0 7 0.6 0 
1925 6 0.961888 6.8785 2.16341 -0.167641 0 0 0 0 0 0 7 0 0 0 7 0.6 0 
3491 9 -0.378794 6.76971 1.82633 55.8945 0 0 0 0 0 0 6 2 2 0 8 -0.6 0 
3490 9 -0.348273 6.69637 1.95896 58.6362 0 0 0 0 0 0 5 3 3 0 8 -0.6 0 
3413 3 -0.408928 7.04996 3.09266 36.4321 0 0 0 8.51115 11.0256 0.522442 7 3 3 0 10 0 0 
108 1 -0.586588 6.40379 3.10347 7.88886 0 0 0 0.862598 6.97565 -2.82109 4 5 0 5 9 0 0 
369 1 -0.32389 7.07645 1.52042 29.1564 0 0 0 7.24689 -8.42309 -1.84544 6 2 2 0 8 0 0 
1891 5 -0.419996 7.11229 2.80089 -2.1256 0 0 0 0 0 0 4 3 3 0 7 0.6 0 
168 2 0.774038 7.43384 2.64354 6.30466 0 0 0 1.94363 0.8543 -0.125615 6 0 0 0 6 0 0 
294 2 0.798304 7.20716 2.0343 14.1465 0 0 0 0.141297 -0.343015 0.194477 6 0 0 0 6 0 0 
134 1 -0.51986 7.17277 2.33376 11.9017 0 0 0 -0.0193785 0.344153 4.68925 5 5 0 5 10 0 0 
162 2 0.793497 7.21331 3.00866 9.7144 0 0 0 -1.4014 -0.80637 -0.00553037 6 0 0 0 6 0 0 
409 2 0.81587 7.45903 2.0258 22.9861 0 0 0 2.46048 0.927489 2.48813 7 0 0 0 7 0 0 
270 1 -0.461679 7.77245 1.79697 25.3169 0 0 0 4.26434 -0.985868 3.05637 6 4 2 2 10 0 0 
2439 9 -0.249589 7.21104 2.41043 53.3751 0 0 0 0 0 0 6 1 1 0 7 -0.6 0 
3457 3 -0.297767 7.57256 1.73107 43.7006 0 0 0 1.74741 -7.86782 -1.7028 8 2 2 0 10 0 0 
490 2 0.791456 7.77163 2.16312 2.88218 0 0 0 1.02718 -3.33643 -0.971682 6 0 0 0 6 0 0 
2442 9 -0.133378 8.39168 1.63456 50.1752 0 0 0 0 0 0 7 1 1 0 8 -0.6 0 
325 1 -0.551752 8.05391 2.11085 21.0152 0 0 0 -0.053961 -3.0949 -4.17151 6 4 0 4 10 0 0 
319 2 0.8196 8.22637 2.31238 17.401 0 0 0 -0.00574981 -1.18901 0.905733 7 0 0 0 7 0 0 
2400 3 -0.0351262 8.19687 2.26228 46.3021 0 0 0 -1.29462 0.961784 4.50831 7 0 0 0 7 0 0 
2375 3 -0.242184 7.99443 1.7001 38.7473 0 0 0 -3.2299 -2.36015 5.6085 6 2 2 0 8 0 0 
1924 5 -0.389412 9.05481 2.2919 -5.44265 0 0 0 0 0 0 6 2 2 0 8 0.6 0 
80 1 -0.624554 9.05296 2.15033 7.21912 0 0 0 8.02535 -5.38662 -2.33329 5 4 0 4 9 0 0 
141 1 -0.479644 9.3673 2.42874 13.6181 0 0 0 -0.96415 -3.77629 -6.66645 5 3 0 3 8 0 0 
399 1 -0.364581 9.08732 2.65673 30.1306 0 0 0 0.747009 3.41894 -5.18023 7 3 3 0 10 0 0 
129 1 -0.532554 9.25834 2.2797 9.94723 0 0 0 -3.00614 5.8833 0.90986 6 5 0 5 11 0 0 
1824 5 -0.313546 9.42046 2.75511 -8.03584 0 0 0 0 0 0 6 2 2 0 8 0.6 0 
1890 6 0.919656 10.0861 2.06466 -0.862733 0 0 0 0 0 0 7 1 0 1 8 0.6 0 
3079 9 -0.408118 9.51589 2.74498 58.7605 0 0 0 0 0 0 5 2 2 0 7 -0.6 0 
299 1 -0.465501 10.1212 2.06382 16.6168 0 0 0 -0.497672 -0.407576 -1.04448 5 3 0 3 8 0 0 
347 2 0.830328 10.0597 2.33365 20.2043 0 0 0 -1.18237 1.41732 -0.231601 8 0 0 0 8 0 0 
2356 3 -0.516828 9.56317 1.70215 34.8909 0 0 0 2.39272 -5.86235 4.75028 7 3 3 0 10 0 0 
3398 3 -0.331004 9.81579 2.87217 41.0096 0 0 0 2.6251 5.32197 -0.616405 7 2 2 0 9 0 0 
2394 3 -0.416914 10.0259 1.80051 43.3514 0 0 0 0.471084 0.329375 -1.40744 8 3 3 0 11 0 0 
2433 9 -0.290047 9.77918 2.68682 52.7769 0 0 0 0 0 0 5 2 2 0 7 -0.6 0 
3503 9 -0.400938 9.43037 2.24772 55.6059 0 0 0 0 0 0 6 3 3 0 9 -0.6 0 
65 2 0.779485 10.8778 2.34093 2.49041 0 0 0 0.294447 -1.1675 -1.81973 6 0 0 0 6 0 0 
251 1 -0.544045 10.3053 2.82953 25.3403 0 0 0 -3.59103 1.49756 14.5727 4 4 2 2 8 0 0 
431 1 -0.308434 10.8413 2.51797 32.6427 0 0 0 0.131113 0.990834 -3.34284 8 2 2 0 10 0 0 
3453 4 1.09612 10.8786 1.75663 30.7109 0 0 0 1.0881 1.79282 -0.367774 7 0 0 0 7 0 0 
3038 3 -0.0154067 10.4299 2.57577 48.1101 0 0 0 12.1167 -3.90763 6.88411 6 0 0 0 6 0 0 
3074 10 1.11282 10.5001 1.82277 57.3661 0 0 0 0 0 0 7 0 0 0 7 -0.6 0 
2402 3 -0.146479 10.765 3.07432 45.3915 0 0 0 -5.29791 -0.441333 -0.132607 6 1 1 0 7 0 0 
1806 6 0.991645 11.1571 1.80164 -8.41236 0 0 0 0 0 0 6 0 0 0 6 0.6 0 
1880 5 -0.448601 11.5986 2.41289 -6.64372 0 0 0 0 0 0 7 3 3 0 10 0.6 0 
3409 3 -0.345111 11.6706 1.88814 36.4396 0 0 0 -2.19925 -4.38381 -1.17523 8 3 3 0 11 0 0 
91 1 -0.536913 11.5828 2.00902 0.720811 0 0 0 1.10259 -3.21263 -0.539819 4 5 2 3 9 0 0 
1130 1 -0.528279 11.5087 2.91522 21.527 0 0 0 2.6204 2.79821 3.08686 5 4 0 4 9 0 0 
2413 10 1.05513 11.3401 1.5741 52.1335 0 0 0 0 0 0 7 0 0 0 7 -0.6 0 
391 2 0.842638 10.9961 2.8077 23.4474 0 0 0 0.324907 -0.764844 -0.919723 5 0 0 0 5 0 0 
1845 5 -0.47413 12.329 2.82585 -1.91622 0 0 0 0 0 0 6 3 2 1 9 0.6 0 
123 1 -0.556332 11.9156 2.68598 14.7885 0 0 0 1.49173 -2.03655 12.5241 3 5 0 5 8 0 0 
262 2 0.825815 11.9373 2.31615 17.1296 0 0 0 1.35589 -0.68467 -0.649356 6 0 0 0 6 0 0 
1018 1 -0.591436 11.8501 2.29323 4.14471 0 0 0 3.37809 2.24845 4.3957 1 5 0 5 6 0 0 
3071 9 -0.421121 11.8229 2.5958 54.3991 0 0 0 0 0 0 8 3 3 0 11 -0.6 0 
2453 4 1.06009 11.881 2.86286 43.4665 0 0 0 -2.41387 -1.21577 2.45918 7 0 0 0 7 0 0 
2345 4 1.11314 11.755 2.46942 26.9462 0 0 0 -1.38588 -0.346997 0.612096 7 0 0 0 7 0 0 
3647 3 -0.355248 12.1184 1.59959 41.8978 0 0 0 -1.68118 -1.20622 5.22222 8 2 2 0 10 0 0 
1932 5 -0.421499 0.203692 4.43928 -4.49393 0 0 0 0 0 0 9 3 3 0 12 0.6 0 
1934 5 -0.618827 0.0220657 4.61709 -0.00290409 0 0 0 0 0 0 3 4 2 2 7 0.6 -1.45888e-13 
3505 9 -0.468593 0.588881 4.05957 56.1078 0 0 0 0 0 0 7 3 3 0 10 -0.6 0 
3506 9 -0.317007 0.459843 3.16613 53.5724 0 0 0 0 0 0 6 2 2 0 8 -0.6 0 
3000 4 1.13857 0.563324 3.27478 33.6849 0 0 0 1.10221 -0.881084 1.7576 7 0 0 0 7 0 0 
137 1 -0.416065 0.553658 3.23274 17.6284 0 0 0 1.3747 -1.89814 2.47684 4 3 0 3 7 0 0 
301 1 -0.504475 0.624455 3.11135 24.161 0 0 0 -1.50554 0.624613 8.64187 4 4 0 4 8 0 0 
1257 1 -0.504865 0.717269 4.06337 27.5111 1 0 0 -3.27896 -0.574179 10.9249 5 3 1 2 8 0 0 
2397 3 -0.182253 0.809364 4.00439 44.5885 0 0 0 8.45319 -2.45707 -3.26392 6 1 1 0 7 0 0 
268 2 0.772448 0.889767 4.04211 13.8711 0 0 0 0.457744 0.360086 0.628593 7 0 0 0 7 0 0 
259 1 -0.594468 1.14825 4.53623 20.5671 0 0 0 2.56389 -5.0532 -0.836888 5 4 0 4 9 0 0 
413 2 0.836119 1.42185 3.26182 22.0362 0 0 0 3.15672 -1.11475 0.573549 8 0 0 0 8 0 0 
3619 3 -0.457973 0.851717 3.77851 42.0734 1 0 0 0.604489 0.04604 -0.629026 7 3 3 0 10 0 0 
3420 4 1.09233 1.08237 4.12193 30.3768 0 0 0 1.17804 1.17739 2.00769 7 0 0 0 7 0 0 
3625 3 -0.553121 1.22961 3.56619 39.2267 1 0 0 1.69354 -1.82895 -5.99719 5 3 3 0 8 0 0 
63 1 -0.58282 0.794491 4.46998 4.61826 0 0 0 0.535887 2.00382 3.72121 1 5 0 5 6 0 0 
1911 5 -0.493626 2.32441 4.45304 -6.31594 0 0 0 0 0 0 6 3 3 0 9 0.6 0 
1902 5 -0.549637 2.16969 3.94486 -2.58039 0 0 0 0 0 0 7 4 4 0 11 0.6 -1.14251e-17 
192 2 0.780323 2.10939 3.81693 6.12844 0 0 0 -0.947415 -1.64339 0.649343 6 0 0 0 6 0 0 
161 1 -0.513152 2.03725 3.32793 11.8855 0 0 0 -0.423738 -2.29476 3.81634 4 4 0 4 8 0 0 
343 2 0.815919 2.1648 3.81858 18.9655 0 0 0 -0.219006 0.592167 0.617877 6 0 0 0 6 0 0 
2425 3 -0.0348074 1.6402 4.12524 48.401 0 0 0 -0.570284 -4.49091 2.74536 5 0 0 0 5 0 0 
3493 9 -0.535424 2.49021 4.10581 57.8748 0 0 0 0 0 0 7 4 4 0 11 -0.6 0 
3082 9 -0.467626 2.60802 4.55348 54.3348 0 0 0 0 0 0 6 3 3 0 9 -0.6 0 
155 1 -0.547146 2.49515 3.81866 15.1292 0 0 0 -4.23063 2.13286 2.7646 4 4 0 4 8 0 0 
2401 4 1.13929 3.03864 3.41086 38.7094 0 0 0 1.51338 -1.90062 0.767047 6 0 0 0 6 0 0 
423 2 0.851344 3.06263 4.51737 24.6273 0 0 0 -0.27369 -0.457856 -2.44026 6 0 0 0 6 0 0 
346 1 -0.326817 2.38935 3.96103 34.0615 0 0 0 -2.64363 -5.12709 0.184824 3 2 2 0 5 0 0 
121 1 -0.552233 2.78693 4.56267 9.30539 0 0 0 2.05227 -4.76182 3.26761 4 4 0 4 8 0 0 
24 1 -0.610235 2.68869 3.17951 0.977729 0 0 0 2.62879 -3.2829 -0.715156 4 6 1 5 10 0 0 
2358 3 -0.343858 2.45153 3.54874 36.7027 0 0 0 1.84017 0.0631979 -4.56289 7 2 2 0 9 0 0 
1828 6 1.08487 3.58572 3.80407 -7.64893 0 0 0 0 0 0 6 0 0 0 6 0.6 0 
1867 6 1.03555 3.30649 3.60981 -4.52639 0 0 0 0 0 0 7 0 0 0 7 0.6 0 
2473 10 1.10648 3.46069 3.80763 56.0732 0 0 0 0 0 0 7 0 0 0 7 -0.6 0 
339 1 -0.406267 3.63014 4.02041 27.6857 0 0 0 -1.20212 6.81874 -3.31299 6 3 2 1 9 0 0 
261 1 -0.501248 3.5476 3.30301 22.9251 0 0 0 1.46121 6.98979 2.42815 6 4 0 4 10 0 0 
426 1 -0.37585 3.34606 4.09908 31.4036 0 0 0 -4.1925 -1.09227 1.32909 6 3 3 0 9 0 0 
3011 3 -0.537699 3.37639 3.60945 40.7061 0 0 0 4.71724 3.0753 3.32637 5 3 3 0 8 0 0 
3406 3 -0.333401 3.34505 4.3306 43.1993 0 0 0 -3.94398 0.509548 4.86733 7 2 2 0 9 0 0 
2416 3 -0.284069 3.42729 3.38612 50.0659 0 0 0 0.301723 8.48674 -1.22136 6 2 2 0 8 0 0 
2440 10 1.08639 3.80552 3.93348 52.6778 0 0 0 0 0 0 8 0 0 0 8 -0.6 0 
30 1 -0.572147 3.92226 4.30872 5.72763 0 0 0 6.67483 -4.3658 -3.68547 3 3 0 3 6 0 0 
130 2 0.827893 4.52563 3.76162 8.53942 0 0 0 -0.29945 0.713179 -0.473874 6 0 0 0 6 0 0 
3486 9 -0.448176 4.43574 4.40931 59.504 0 0 0 0 0 0 4 3 3 0 7 -0.6 0 
322 2 0.851823 4.33798 3.71071 14.4717 0 0 0 -0.373815 -2.02788 -1.05451 6 0 0 0 6 0 0 
55 1 -0.560882 4.05543 4.31169 3.04317 0 0 0 -1.84179 0.511404 4.48807 4 4 0 4 8 0 0 
290 1 -0.518581 4.31588 4.63277 19.2594 0 0 0 -2.11038 0.546922 4.76146 5 4 0 4 9 0 0 
1840 5 -0.535365 5.22902 4.62207 -7.10542 0 0 0 0 0 0 5 3 3 0 8 0.6 0 
1906 5 -0.518941 5.17548 4.27486 -4.56039 0 0 0 0 0 0 5 3 3 0 8 0.6 0 
85 2 0.739362 4.99529 4.47592 0.451083 0 0 0 1.45955 -1.20248 -0.0838056 7 0 0 0 7 0 0 
229 2 0.819853 4.98537 4.08743 17.4455 0 0 0 -0.365978 -0.0287047 0.397617 6 0 0 0 6 0 0 
360 1 -0.363921 5.27793 3.98928 33.6026 0 0 0 -4.01918 1.49017 -1.14723 6 2 2 0 8 0 0 
3403 3 -0.332526 5.08372 3.24553 38.3428 0 0 0 5.4787 2.46211 5.27414 8 2 2 0 10 0 0 
381 1 -0.453557 5.01869 3.20869 29.8258 0 0 0 5.47428 0.0720259 0.357839 6 3 3 0 9 0 0 
349 1 -0.481129 4.73392 4.50871 36.0612 0 0 0 -2.70717 -9.56464 7.21571 7 3 3 0 10 0 0 
1865 6 1.06232 5.81927 4.37967 -2.46894 0 0 0 0 0 0 7 0 0 0 7 0.6 0 
116 1 -0.533559 6.14504 3.78782 13.6632 0 0 0 -1.26816 -2.35629 -1.40828 3 4 0 4 7 0 0 
128 1 -0.640467 5.57821 3.92787 10.3306 0 0 0 -0.373424 -0.656232 0.364336 4 4 0 4 8 0 0 
231 1 -0.535876 6.05108 3.49138 22.11 0 0 0 1.05636 10.3319 3.75937 6 5 0 5 11 0 0 
425 2 0.8209 5.62192 4.22073 26.8392 0 0 0 -0.712878 -1.11744 1.3922 7 0 0 0 7 0 0 
3497 9 -0.491526 5.50836 4.19966 56.1782 0 0 0 0 0 0 8 3 3 0 11 -0.6 0 
3021 3 -0.247539 5.86554 3.72125 43.3881 0 0 0 -0.511484 -0.774761 0.545937 5 1 1 0 6 0 0 
3432 3 -0.0393105 5.83262 3.58805 46.2971 0 0 0 0.276492 4.66773 -9.27696 3 0 0 0 3 0 0 
2457 9 -0.480795 5.5784 4.56866 53.4268 0 0 0 0 0 0 4 3 3 0 7 -0.6 0 
2472 10 1.04264 6.06197 3.91353 58.1782 0 0 0 0 0 0 7 0 0 0 7 -0.6 0 
241 1 -0.472155 5.57206 3.25796 24.8305 0 0 0 -1.74202 -0.397768 -2.41255 7 3 0 3 10 0 0 
1805 5 -0.374549 6.62767 4.00303 -9.45241 0 0 0 0 0 0 4 2 2 0 6 0.6 0 
1877 6 1.05417 6.45654 3.53175 -5.79929 0 0 0 0 0 0 7 0 0 0 7 0.6 0 
77 1 -0.518081 6.62901 3.42091 1.7444 0 0 0 0.453944 3.06276 2.71837 3 4 1 3 7 0 0 
2 1 -0.584542 6.59479 3.36677 4.47973 0 0 0 0.727832 -8.04707 -1.25233 3 5 0 5 8 0 0 
3042 9 -0.266858 7.03874 3.7892 50.9563 0 0 0 0 0 0 6 2 2 0 8 -0.6 0 
271 1 -0.538469 6.93573 3.74262 18.2238 0 0 0 0.382169 12.0583 -5.33442 2 4 0 4 6 0 0 
3488 10 1.13861 6.66434 3.52793 54.7876 0 0 0 0 0 0 7 0 0 0 7 -0.6 0 
1914 5 -0.378262 7.77398 4.30295 -4.1304 0 0 0 0 0 0 6 3 3 0 9 0.6 0 
344 2 0.810233 7.24451 3.93319 20.2122 0 0 0 0.166221 1.326 -0.334918 7 0 0 0 7 0 0 
186 1 -0.508366 7.78705 3.68788 15.6615 0 0 0 9.5902 -0.0795442 1.39367 4 5 0 5 9 0 0 
358 1 -0.496409 7.47116 3.61345 27.48 0 0 0 -0.101529 0.412644 -2.54536 6 3 1 2 9 0 0 
2340 4 1.07096 7.1669 3.40214 29.4477 0 0 0 -0.923008 -0.642297 1.85344 7 0 0 0 7 0 0 
3028 3 -0.207032 7.24012 3.30038 41.2058 0 0 0 1.13995 -0.377975 3.50755 6 2 2 0 8 0 0 
2409 3 -0.374208 7.36903 4.3566 38.737 0 0 0 3.1438 3.96933 -1.47943 8 2 2 0 10 0 0 
3067 9 -0.349875 7.23269 4.25777 59.8324 0 0 0 0 0 0 3 2 2 0 5 -0.6 0 
388 1 -0.459195 7.01987 3.44346 31.514 0 0 0 -8.94556 6.2074 1.1603 7 3 3 0 10 0 0 
1935 5 -0.475464 7.96463 4.65603 -6.81074 0 0 0 0 0 0 6 3 3 0 9 0.6 0 
297 1 -0.51415 8.19959 3.98498 23.6775 0 0 0 0.533611 -8.91647 1.28426 5 4 0 4 9 0 0 
2355 3 -0.394961 7.83556 3.29711 34.11 0 0 0 -6.84385 -0.882948 -1.98247 7 3 3 0 10 0 0 
2370 3 -0.325939 8.1371 4.3059 44.5528 0 0 0 11.0749 5.67657 1.04222 7 2 2 0 9 0 0 
3499 9 -0.490535 7.95354 4.15499 57.1602 0 0 0 0 0 0 5 4 4 0 9 -0.6 0 
2429 3 -0.0261013 8.11776 3.8756 48.2407 0 0 0 -5.99809 5.27991 -5.0849 6 0 0 0 6 0 0 
3089 9 -0.441821 8.34874 4.51124 54.4934 0 0 0 0 0 0 6 3 3 0 9 -0.6 0 
2369 4 1.07529 8.55584 4.37829 35.7657 0 0 0 -2.51192 -0.335369 -2.01594 7 0 0 0 7 0 0 
61 1 -0.511782 9.23668 3.39578 0.603517 0 0 0 4.66883 -9.46072 3.11459 3 6 3 3 9 0 0 
277 2 0.769061 8.93683 3.59209 11.9555 0 0 0 -0.712668 -0.0958048 0.473314 6 0 0 0 6 0 0 
313 1 -0.486281 9.32878 3.63009 18.7654 0 0 0 4.67231 -1.18842 -6.81323 7 5 0 5 12 0 0 
354 2 0.842506 8.66899 3.90204 25.7624 0 0 0 -0.0108996 -1.22518 -1.14733 8 0 0 0 8 0 0 
2407 4 1.09164 9.04343 3.47401 39.2395 0 0 0 0.124383 -3.36168 -0.804306 8 0 0 0 8 0 0 
3500 10 1.03892 8.98239 4.43527 59.0934 0 0 0 0 0 0 5 0 0 0 5 -0.6 0 
3040 4 0.99818 8.66672 3.26822 42.7882 0 0 0 1.23799 0.778845 0.0639312 7 0 0 0 7 0 0 
282 1 -0.453607 9.23779 4.52719 21.2445 0 0 0 1.31191 -5.00825 -6.58047 6 4 0 4 10 0 0 
1848 6 1.06345 9.83582 4.06852 -6.09277 0 0 0 0 0 0 7 0 0 0 7 0.6 0 
1897 5 -0.455979 9.79139 3.66586 -2.06163 0 0 0 0 0 0 6 3 3 0 9 0.6 0 
150 2 0.816953 9.95556 3.50482 8.21864 0 0 0 0.40043 0.899307 0.611176 6 0 0 0 6 0 0 
3061 10 1.09523 10.1617 3.85119 54.5896 0 0 0 0 0 0 7 0 0 0 7 -0.6 0 
89 1 -0.577818 9.4855 4.59085 6.41772 0 0 0 2.04841 4.19747 2.65661 3 4 0 4 7 0 0 
247 2 0.807957 10.0894 3.64346 15.0625 0 0 0 1.06953 0.902947 1.36794 6 0 0 0 6 0 0 
3050 9 -0.0148272 9.87721 3.91698 50.2651 0 0 0 0 0 0 6 0 0 0 6 -0.6 0 
2348 3 -0.474101 9.51314 3.28722 37.2899 0 0 0 0.136037 -6.2654 6.72776 7 3 3 0 10 0 0 
3004 4 1.074 10.1929 4.65991 29.3255 0 0 0 0.684434 1.58859 0.273333 7 0 0 0 7 0 0 
59 1 -0.544427 9.43984 3.62323 3.7098 0 0 0 0.715922 -5.17942 -5.87728 3 5 0 5 8 0 0 
3027 3 -0.453568 10.2984 4.49786 43.0147 0 0 0 6.72605 -0.825093 -2.4461 5 3 3 0 8 0 0 
3013 3 -0.283324 10.79 3.89035 34.9192 0 0 0 -2.06571 -1.67109 0.588206 7 2 2 0 9 0 0 
102 1 -0.591065 10.8546 3.69468 11.631 0 0 0 -1.04914 -2.52858 0.518621 2 4 0 4 6 0 0 
400 1 -0.437098 10.1654 3.34452 27.7815 0 0 0 -6.38544 -0.462254 -1.74072 7 3 2 1 10 0 0 
1892 5 -0.499585 11.0176 3.80352 -4.48238 0 0 0 0 0 0 6 3 3 0 9 0.6 0 
35 1 -0.57271 11.4804 4.46818 1.74626 0 0 0 -2.43571 4.34246 1.84609 5 4 0 4 9 0 0 
963 2 0.756157 11.2927 4.36086 4.96038 0 0 0 -1.57247 -2.51821 -0.40549 7 0 0 0 7 0 0 
3075 9 -0.563162 11.1858 3.69368 56.811 0 0 0 0 0 0 6 4 4 0 10 -0.6 0 
1205 1 -0.463746 11.7793 4.20394 19.2568 0 0 0 1.1543 0.141669 3.48697 6 4 0 4 10 0 0 
1341 1 -0.53429 11.5294 3.57592 30.1717 0 0 0 2.42368 7.13291 3.88446 9 3 3 0 12 0 0 
2359 3 -0.247031 11.4852 3.99349 39.2606 0 0 0 -1.02517 -2.33905 3.22814 4 2 2 0 6 0 0 
916 1 -0.58288 11.7275 3.1008 6.91517 0 0 0 1.31879 -1.3012 -5.95268 2 5 0 5 7 0 0 
1815 5 -0.484867 12.1889 3.29775 -9.02342 0 0 0 0 0 0 5 3 3 0 8 0.6 0 
14 2 0.788495 11.8962 3.79176 -0.127806 0 0 0 0.253309 -1.27835 -0.764087 6 1 1 0 7 0 0 
2420 9 -0.422301 12.0813 3.32687 51.6983 0 0 0 0 0 0 8 2 2 0 10 -0.6 0 
257 2 0.746161 12.4081 3.54791 12.9512 0 0 0 1.42914 0.491743 -0.352705 6 0 0 0 6 0 0 
217 1 -0.527719 12.4982 4.42041 16.7075 0 0 0 6.17691 2.25897 2.11577 4 4 0 4 8 0 0 
1852 6 1.10151 0.480366 5.30889 -6.31282 0 0 0 0 0 0 7 0 0 0 7 0.6 0 