ITEM: TIMESTEP
2500000
ITEM: NUMBER OF ATOMS
3783
ITEM: BOX BOUNDS pp pp ff
0.0000000000000000e+00 2.5084187741634910e+01
0.0000000000000000e+00 2.4878427395809343e+01
-1.0000000000000000e+01 8.0000000000000000e+01
ITEM: ATOMS id type q x y z ix iy iz vx vy vz v_Ocoord v_Mcoord v_Tacoord v_Hfcoord c_ncoord[11] c_locpot[1] c_locpot[2] 
1818 5 -0.280677 0.167498 0.256389 -8.93728 0 0 0 0 0 0 3 1 1 0 4 0.6 0 
1869 5 -0.601365 0.655626 0.338118 -2.8042 0 0 0 0 0 0 6 4 2 2 10 0.6 0 
522 2 0.812831 0.488056 0.474653 3.49118 0 1 0 2.67911 2.3931 1.70852 6 0 0 0 6 0 0 
3469 9 -0.220487 0.302014 0.293553 52.0023 0 0 0 0 0 0 8 1 1 0 9 -0.6 0 
161 1 -0.549641 0.0917066 0.491088 11.2996 0 0 0 -1.70482 -1.52864 -12.757 3 4 0 4 7 0 0 
1098 1 -0.527238 0.0478068 1.31534 14.0543 1 0 0 -2.59036 -0.74869 4.72575 0 3 0 3 3 0 0 
1893 5 -0.433944 1.32986 0.192039 -6.05707 0 0 0 0 0 0 6 2 2 0 8 0.6 0 
360 1 -0.250349 1.46497 0.957591 34.6829 0 0 0 8.50419 4.37583 10.9729 7 2 2 0 9 0 0 
2426 3 -0.120026 1.16696 0.239915 49.4513 0 0 0 -6.32309 -7.04496 -3.18077 7 1 1 0 8 0 0 
881 1 -0.232819 1.34379 1.16689 32.2362 0 0 0 -19.164 1.94365 -12.1439 6 1 1 0 7 0 0 
3076 9 -0.430084 1.13701 0.766813 54.4535 0 0 0 0 0 0 6 3 3 0 9 -0.6 0 
2475 9 -0.331371 1.05794 0.628025 58.2808 0 0 0 0 0 0 6 2 2 0 8 -0.6 0 
2335 3 -0.438405 1.51618 0.803359 38.2157 0 0 0 2.7201 -1.67844 3.58779 6 3 3 0 9 0 0 
494 2 0.776444 1.91469 0.850176 0.457183 0 1 0 -0.690052 3.75441 -0.365079 5 1 1 0 6 0 0 
949 1 -0.423436 1.77339 0.951907 7.71692 1 0 0 -3.62623 1.26657 0.272053 3 5 0 5 8 0 0 
615 2 0.774062 1.96601 1.00971 11.8685 0 1 0 -1.14623 1.2847 1.17351 7 0 0 0 7 0 0 
3418 4 1.13183 1.95474 0.396158 25.2219 0 0 0 1.59361 1.39954 -2.11279 8 0 0 0 8 0 0 
187 1 -0.47579 2.02678 1.28245 16.3673 0 0 0 -3.8175 7.65308 -4.9032 3 4 0 4 7 0 0 
1826 6 0.78688 2.82035 1.35825 -9.71148 0 0 0 0 0 0 3 0 0 0 3 0.6 0 
1905 5 -0.54027 3.12562 0.656879 -1.53567 0 0 0 0 0 0 3 3 1 2 6 0.6 0 
2492 10 1.13649 3.03295 0.94751 54.0654 0 0 0 0 0 0 8 0 0 0 8 -0.6 0 
585 1 -0.608011 2.81344 0.188132 9.96476 0 1 0 6.52326 -1.25081 8.47974 5 5 0 5 10 0 0 
376 2 0.828568 2.49603 0.268837 18.284 0 0 0 -4.91418 0.37222 -0.874222 6 0 0 0 6 0 0 
2364 4 1.08569 2.6362 1.18254 36.6472 0 0 0 -0.844204 -0.188615 0.183795 7 0 0 0 7 0 0 
619 1 -0.444125 2.57171 0.00197544 13.5952 0 1 0 1.03979 1.01744 12.4391 3 4 0 4 7 0 0 
759 1 -0.576972 2.90419 0.021339 23.1987 0 1 0 -6.05242 -0.15191 4.30059 7 4 1 3 11 0 0 
413 2 0.872096 2.39851 1.14365 21.6494 0 0 0 2.32909 -1.32605 -1.17695 7 0 0 0 7 0 0 
1926 6 1.12561 3.22942 0.576211 -6.27741 0 0 0 0 0 0 7 0 0 0 7 0.6 0 
3496 9 -0.315933 3.55188 0.82441 59.3525 0 0 0 0 0 0 4 2 2 0 6 -0.6 0 
3435 3 -0.274592 3.68192 0.299295 43.1893 0 0 0 2.74919 -4.16841 -4.62008 7 2 2 0 9 0 0 
3321 3 -0.00516011 3.39344 1.00556 45.6507 1 1 0 2.66393 2.91806 -11.8983 4 0 0 0 4 0 0 
3008 4 1.10423 3.74733 1.47293 27.9896 0 0 0 -1.83767 2.99812 -0.151335 7 0 0 0 7 0 0 
711 1 -0.493751 3.32701 0.654881 29.7885 0 0 0 2.7004 6.77649 2.58077 6 3 3 0 9 0 0 
392 1 -0.390308 3.74491 0.780937 33.3722 0 0 0 1.84381 -7.161 -5.05249 8 3 3 0 11 0 0 
1881 5 -0.547878 4.02865 0.365068 -4.42717 0 0 0 0 0 0 5 4 3 1 9 0.6 0 
581 1 -0.553572 4.62357 0.72234 11.8621 0 1 0 2.31099 -0.916008 -6.12985 3 5 0 5 8 0 0 
2478 9 -0.364383 4.4989 0.348633 56.0416 0 0 0 0 0 0 10 3 3 0 13 -0.6 0 
788 1 -0.446534 4.34297 0.483148 25.512 0 0 0 9.85335 12.5491 3.80616 7 4 3 1 11 0 0 
167 1 -0.587051 4.14284 1.46969 18.1343 0 0 0 -6.05024 1.5676 5.00808 5 4 0 4 9 0 0 
1264 1 -0.527536 4.5934 0.619467 36.0082 0 0 0 0.589801 0.878292 5.29076 7 3 3 0 10 0 0 
3103 3 -0.342789 4.05057 0.100183 38.8259 0 1 0 -8.40227 3.10159 -2.00276 7 2 2 0 9 0 0 
3470 3 -0.337772 4.39947 0.564117 49.9327 0 0 0 4.61679 -0.766674 -2.58127 7 2 2 0 9 0 0 
2387 4 1.07891 4.48494 0.379641 31.4814 0 0 0 -1.6307 2.83305 -0.131544 7 0 0 0 7 0 0 
1812 5 -0.382124 4.7493 0.357605 -7.59754 0 0 0 0 0 0 6 2 2 0 8 0.6 0 
1870 6 1.0802 5.4291 1.00095 -3.18012 0 0 0 0 0 0 7 0 0 0 7 0.6 0 
12 1 -0.53892 5.05766 0.75569 8.60895 0 0 0 -13.1238 -10.7587 -9.09296 5 5 0 5 10 0 0 
248 2 0.776526 5.32312 0.29021 13.6785 0 1 0 -0.131892 0.94481 0.57385 7 0 0 0 7 0 0 
444 2 0.846352 4.89673 0.0891067 23.6376 0 0 0 -2.16358 1.57134 -3.84641 7 0 0 0 7 0 0 
3465 9 -0.253832 4.88682 0.639183 53.2963 0 0 0 0 0 0 8 1 1 0 9 -0.6 0 
2476 10 1.07315 5.14733 0.51148 58.0096 0 0 0 0 0 0 7 0 0 0 7 -0.6 0 
320 1 -0.482718 5.36493 0.142751 27.8337 0 0 0 2.77687 4.21246 -2.41696 6 3 2 1 9 0 0 
1884 5 -0.573104 6.0128 0.59889 -1.43104 0 0 0 0 0 0 6 4 3 1 10 0.6 -4.34031e-13 
3445 3 -0.0503819 5.94944 1.24633 44.2282 0 0 0 11.8815 3.77453 -3.11175 7 0 0 0 7 0 0 
501 2 0.794858 5.82996 0.331655 5.61901 0 1 0 -2.27501 -1.54101 -0.677443 5 0 0 0 5 0 0 
2399 4 1.03904 5.61267 1.16146 37.6094 0 0 0 4.18871 -4.07649 0.629847 8 0 0 0 8 0 0 
829 2 0.859483 5.56677 0.886094 19.4215 0 1 0 0.21781 -1.28863 0.619567 7 0 0 0 7 0 0 
250 1 -0.429282 5.58837 0.901721 21.6127 0 0 0 1.83079 -6.43664 -8.35452 7 4 0 4 11 0 0 
241 1 -0.381197 6.12868 1.42022 30.2008 0 0 0 -3.58458 0.607141 9.53049 7 3 2 1 10 0 0 
3021 3 -0.0295445 5.53036 0.488197 47.3909 0 0 0 -2.82823 -11.0097 7.70122 8 0 0 0 8 0 0 
2369 4 1.10638 5.88486 0.918818 34.5978 0 0 0 3.00517 2.1578 -0.79341 7 0 0 0 7 0 0 
358 1 -0.435718 6.10848 1.28567 32.7121 0 0 0 -1.78511 -9.23085 8.08533 6 3 3 0 9 0 0 
486 1 -0.516338 5.60152 0.78989 1.62851 0 1 0 -5.19141 1.91791 6.66987 5 5 1 4 10 0 0 
1816 5 -0.381249 6.83056 0.226397 -9.23727 0 0 0 0 0 0 5 2 2 0 7 0.6 0 
414 2 0.854069 7.03041 1.10428 27.9939 0 0 0 1.2025 -2.09421 -4.77234 7 0 0 0 7 0 0 
252 1 -0.419937 6.74199 1.16034 24.2342 0 0 0 -3.21152 5.61849 -1.91562 4 3 0 3 7 0 0 
136 2 0.803749 6.3207 0.803012 10.5946 0 0 0 -1.61229 -0.240487 -1.92739 6 0 0 0 6 0 0 
2441 10 1.14829 6.31568 1.46177 50.4833 0 0 0 0 0 0 7 0 0 0 7 -0.6 0 
899 1 -0.481582 6.98536 0.9328 36.1577 0 0 0 3.99417 12.047 2.2238 5 3 3 0 8 0 0 
135 1 -0.480539 6.5048 0.194068 17.7405 0 0 0 5.27134 1.20118 4.32193 4 4 0 4 8 0 0 
483 2 0.625089 7.49025 0.161281 1.76289 0 1 0 0.347133 -2.33232 -1.60906 6 0 0 0 6 0.6 1.9548e-12 
2421 9 -0.330962 7.17582 0.25006 52.0375 0 0 0 0 0 0 6 2 2 0 8 -0.6 0 
407 2 0.832837 7.56864 0.837808 22.1986 0 0 0 -0.790096 -1.30779 -0.669397 7 0 0 0 7 0 0 
183 1 -0.471683 7.09493 0.815648 14.8795 0 0 0 3.55315 -5.21219 -3.46647 2 4 0 4 6 0 0 
299 1 -0.476579 7.78466 1.46719 20.0787 0 0 0 4.65561 6.58011 -1.15779 3 4 0 4 7 0 0 
480 1 -0.558299 7.08363 0.750791 7.0744 0 1 0 5.71429 18.225 -1.08123 4 4 0 4 8 0 0 
1842 5 -0.441356 8.38255 0.0497362 -6.99822 0 0 0 0 0 0 6 3 3 0 9 0.6 0 
1885 6 1.0995 8.31149 0.482112 -5.03262 0 0 0 0 0 0 7 0 0 0 7 0.6 0 
1868 5 -0.650021 8.54344 0.771724 -0.51607 0 0 0 0 0 0 4 5 3 2 9 0.6 -1.81672e-10 
220 2 0.785487 8.25703 0.50168 13.139 0 1 0 0.459497 0.0838495 -0.589868 6 0 0 0 6 0 0 
2474 9 -0.219457 8.53046 0.649621 60.4244 0 0 0 0 0 0 1 1 1 0 2 -0.6 0 
2481 10 1.15474 7.9244 0.174061 55.7445 0 0 0 0 0 0 7 0 0 0 7 -0.6 0 
3396 3 -0.478756 8.17885 1.11184 40.711 0 0 0 0.821496 7.61925 -0.254739 7 3 3 0 10 0 0 
294 2 0.845448 8.08023 1.28723 16.744 0 0 0 -2.41113 1.32766 -3.385 6 0 0 0 6 0 0 
3439 4 1.16006 7.91024 1.09656 31.1509 0 0 0 -2.90523 1.7295 -2.55509 7 0 0 0 7 0 0 
21 1 -0.476175 8.05763 0.853686 9.75777 0 0 0 5.27134 6.88392 -1.13882 3 3 0 3 6 0 0 
3467 3 -0.0344329 8.41894 0.334456 48.0799 0 0 0 0.10699 -11.0013 2.62315 7 0 0 0 7 0 0 
603 2 0.844171 9.01704 0.84985 7.97627 0 1 0 3.07721 0.753179 0.195607 7 0 0 0 7 0 0 
490 2 0.779075 8.87258 0.284964 4.42542 0 0 0 -0.461246 -2.26241 0.12382 6 0 0 0 6 0 0 
3413 3 -0.316766 8.86109 0.537742 37.76 0 0 0 -5.77484 -3.84002 -13.2162 6 2 2 0 8 0 0 
3058 4 1.11366 8.97979 0.285927 42.5361 0 1 0 0.53452 -0.385108 1.41769 6 0 0 0 6 0 0 
2459 9 -0.392048 9.09294 0.0120927 54.2051 0 0 0 0 0 0 5 2 2 0 7 -0.6 0 
3502 9 -0.498586 8.72897 0.675267 57.5199 0 0 0 0 0 0 7 3 3 0 10 -0.6 0 
1821 5 -0.327679 9.81229 0.341125 -9.1223 0 0 0 0 0 0 4 2 2 0 6 0.6 0 
1923 5 -0.395428 9.58851 1.21719 -2.99592 0 0 0 0 0 0 7 3 3 0 10 0.6 0 
3455 3 -0.0302724 9.92796 0.669222 45.891 0 1 0 7.0324 1.31146 -3.7211 7 0 0 0 7 0 0 
3051 9 -0.317304 9.97361 0.179156 51.6997 0 0 0 0 0 0 7 2 2 0 9 -0.6 0 
233 1 -0.578938 9.58516 0.895718 21.9886 0 0 0 -0.471449 8.21295 7.94279 3 4 0 4 7 0 0 
437 1 -0.493565 9.70377 0.903532 30.7984 0 0 0 -3.01275 5.06146 -6.2808 8 3 3 0 11 0 0 
1680 1 -0.398088 9.87955 0.108639 24.7271 0 1 0 6.70088 11.2075 -0.278475 6 3 0 3 9 0 0 
114 1 -0.567652 10.0031 1.47081 15.7419 0 0 0 -0.596574 -7.82715 2.78048 4 4 0 4 8 0 0 
106 1 -0.634554 9.59122 0.773497 2.2516 0 0 0 9.1488 2.2808 -10.4864 1 5 0 5 6 0 0 
369 1 -0.553617 10.1644 0.852009 27.4887 0 0 0 -3.10484 5.08455 -2.02379 5 3 1 2 8 0 0 
370 1 -0.427591 10.5999 0.229767 33.4377 0 0 0 3.55001 0.288819 -0.457269 6 3 3 0 9 0 0 
1047 2 0.811918 10.3952 0.871609 10.9537 0 0 0 0.881311 -2.67 -2.03923 7 0 0 0 7 0 0 
2575 3 -0.24667 10.7477 1.45704 39.7435 0 0 0 16.4524 -7.17712 1.03454 7 2 2 0 9 0 0 
2384 3 -0.282187 10.8425 1.30171 42.5861 0 0 0 2.19214 5.08615 -7.11487 6 3 3 0 9 0 0 
3402 3 -0.329021 10.2558 1.52828 35.8223 0 0 0 -9.46768 1.05808 7.98734 7 2 2 0 9 0 0 
1846 5 -0.615487 11.2173 0.393475 -0.946796 0 0 0 0 0 0 5 4 3 1 9 0.6 -1.68065e-10 
319 2 0.797502 11.1236 0.486497 17.5793 0 0 0 1.30129 -3.09202 -0.428715 7 0 0 0 7 0 0 
1215 2 0.776651 10.9766 0.494639 14.3506 0 0 0 -1.38087 -2.02277 2.46884 6 0 0 0 6 0 0 
2463 9 -0.333571 11.1931 0.865414 59.0255 0 0 0 0 0 0 4 2 2 0 6 -0.6 0 
2577 4 1.13978 11.7304 0.685092 35.0608 0 1 0 -0.158729 -1.73162 -1.11596 7 0 0 0 7 0 0 
2417 9 -0.214323 11.7162 1.31411 50.0999 0 0 0 0 0 0 5 2 2 0 7 -0.6 0 
1273 2 0.855244 11.2943 1.21926 23.2202 0 0 0 -1.78285 -0.42611 -0.556595 8 0 0 0 8 0 0 
65 2 0.736785 11.7586 0.892793 2.6644 0 0 0 3.40513 1.17172 -1.85112 6 0 0 0 6 0 0 
1927 5 -0.340714 12.1657 1.34918 -4.23881 0 0 0 0 0 0 6 2 2 0 8 0.6 0 
549 1 -0.606681 12.2555 0.492991 6.44099 0 1 0 0.115653 4.72498 -2.90571 4 4 0 4 8 0 0 
197 2 0.8447 12.1874 1.00513 8.45908 0 0 0 3.64682 1.80213 -2.67747 6 0 0 0 6 0 0 
2742 3 -0.165029 12.3175 0.749849 44.7381 0 0 0 -4.30287 -17.3971 5.45872 7 1 1 0 8 0 0 
1120 1 -0.54401 12.4145 0.591342 16.0719 0 1 0 -0.400691 -12.6701 -0.950729 4 4 0 4 8 0 0 
2454 3 -0.0116909 12.054 0.346409 47.4249 0 0 0 2.24358 13.3281 -11.7458 6 0 0 0 6 0 0 
3016 3 -0.370253 12.3179 0.381469 37.5516 0 0 0 -2.98519 2.76134 9.61947 5 3 3 0 8 0 0 
366 1 -0.479685 11.9985 1.5266 30.5464 0 0 0 -3.35947 -1.94021 0.607511 5 4 4 0 9 0 0 
1936 5 -0.323006 0.129823 2.95334 -6.77716 0 0 0 0 0 0 6 2 2 0 8 0.6 0 
1916 6 1.07675 0.596862 2.35111 -2.94563 0 0 0 0 0 0 7 1 0 1 8 0.6 0 
1683 1 -0.439945 0.620533 1.82785 21.3649 0 0 0 11.0802 -7.02002 2.10123 6 4 0 4 10 0 0 
1257 1 -0.558352 0.694124 1.99381 28.6109 1 0 0 -4.2722 -1.1494 4.22844 5 4 3 1 9 0 0 
3228 3 -0.0246085 0.55172 1.87993 46.2614 1 0 0 -13.6538 -2.37324 -2.24203 4 0 0 0 4 0 0 
3231 3 -0.400083 0.650648 1.68176 41.1617 1 0 0 -4.4018 -1.32272 0.110694 6 3 3 0 9 0 0 
1861 5 -0.616191 1.21377 2.30287 -1.01995 0 0 0 0 0 0 5 4 2 2 9 0.6 -9.90598e-18 
481 1 -0.487521 1.522 1.84437 2.15397 1 1 0 -2.4145 -3.56481 7.70519 3 4 0 4 7 0 0 
499 1 -0.490521 1.22475 2.50781 10.0563 0 1 0 3.9981 -3.19342 3.73527 3 4 0 4 7 0 0 
1204 1 -0.500908 1.33136 1.87763 18.832 1 0 0 -7.81666 -6.00151 -4.88628 6 4 0 4 10 0 0 
273 1 -0.503519 1.24053 2.05462 23.8842 0 0 0 6.21315 -7.98188 5.62057 6 4 1 3 10 0 0 
2336 3 -0.488863 0.825937 2.48633 36.5434 0 0 0 -11.1057 -2.50669 0.638332 8 4 4 0 12 0 0 
3084 10 1.06242 0.835443 2.55907 57.7348 0 0 0 0 0 0 7 0 0 0 7 -0.6 0 
3460 9 -0.127438 0.955826 2.53659 50.7078 0 0 0 0 0 0 7 1 1 0 8 -0.6 0 
2469 9 -0.333561 1.3669 2.80468 59.7112 0 0 0 0 0 0 3 2 2 0 5 -0.6 0 
2536 3 -0.283372 1.49951 2.23064 43.5475 0 1 0 0.970286 9.63489 -0.0624339 6 2 2 0 8 0 0 
554 1 -0.568591 1.07101 1.695 5.28589 0 1 0 1.38707 0.851149 -6.67019 1 4 0 4 5 0 0 
1820 5 -0.406692 2.29364 1.75756 -7.90413 0 0 0 0 0 0 5 3 3 0 8 0.6 0 
1871 5 -0.445697 1.98802 2.1715 -4.4454 0 0 0 0 0 0 5 3 3 0 8 0.6 0 
3485 9 -0.401903 2.30675 2.04141 56.328 0 0 0 0 0 0 7 3 3 0 10 -0.6 0 
2342 4 1.07875 1.71773 1.82707 30.486 0 0 0 -2.16344 1.14732 -2.70475 7 0 0 0 7 0 0 
81 1 -0.558294 2.33023 3.07083 12.5092 0 0 0 6.84232 3.20989 -9.63269 1 5 0 5 6 0 0 
674 2 0.797483 2.96992 1.86812 5.63508 0 0 0 1.02183 -0.571051 -1.832 6 0 0 0 6 0 0 
3392 3 -0.54583 2.92846 2.85604 35.3188 0 0 0 6.30334 10.8715 -3.59174 7 4 4 0 11 0 0 
261 1 -0.497759 2.4361 1.99349 26.3749 0 0 0 -6.33012 8.16144 5.78073 5 4 2 2 9 0 0 
3049 9 -0.481382 2.67552 2.23409 52.6073 0 0 0 0 0 0 5 3 3 0 8 -0.6 0 
3056 3 -0.131158 2.6796 1.98592 48.3019 0 1 0 7.21933 -9.65189 5.61442 6 1 1 0 7 0 0 
3474 4 1.07035 3.05703 1.84343 41.9531 0 0 0 1.14286 3.19248 2.4692 7 0 0 0 7 0 0 
2437 10 1.09042 2.81319 1.5826 50.598 0 0 0 0 0 0 8 0 0 0 8 -0.6 0 
258 1 -0.482913 3.03321 2.83486 20.785 0 0 0 -3.26299 1.41415 3.1474 7 4 0 4 11 0 0 
1866 6 1.00168 3.23203 2.67604 -1.04386 0 0 0 0 0 0 7 1 0 1 8 0.6 -1.0645e-17 
168 2 0.766468 3.36668 1.9866 9.06033 0 0 0 -1.99126 -1.70495 -3.25152 6 0 0 0 6 0 0 
3066 10 0.950238 3.28341 2.79106 59.2624 0 0 0 0 0 0 5 0 0 0 5 -0.6 0 
2403 4 1.07595 3.61866 2.82251 33.4803 0 0 0 -2.90684 -1.11004 -0.461609 7 0 0 0 7 0 0 
381 1 -0.421375 3.37035 2.466 31.5351 0 0 0 1.2757 -4.533 6.47519 6 3 3 0 9 0 0 
3 1 -0.494381 3.69231 1.69378 3.61906 0 0 0 10.0032 7.44339 3.14276 2 4 0 4 6 0 0 
2495 3 -0.209203 3.85727 2.27802 40.3117 0 0 0 -7.39706 -10.0237 0.90741 7 1 1 0 8 0 0 
1825 5 -0.56312 4.33362 2.73308 -9.00847 0 0 0 0 0 0 4 3 3 0 7 0.6 0 
1862 5 -0.51718 4.17963 2.44494 -6.12297 0 0 0 0 0 0 7 4 4 0 11 0.6 0 
1908 5 -0.583543 4.43932 2.71865 -2.80175 0 0 0 0 0 0 6 4 4 0 10 0.6 0 
310 1 -0.491974 4.05889 2.23473 23.0973 0 0 0 3.53185 4.10062 -10.4636 4 4 0 4 8 0 0 
2 1 -0.574281 3.97998 2.69606 7.1237 0 0 0 2.07406 -1.07413 -0.329861 3 5 0 5 8 0 0 
2470 9 -0.45566 4.174 2.63235 54.6428 0 0 0 0 0 0 7 4 4 0 11 -0.6 0 
2487 9 -0.539705 4.49305 2.47126 57.6906 0 0 0 0 0 0 7 4 4 0 11 -0.6 0 
229 2 0.829436 4.56933 1.82259 16.1233 0 0 0 0.341247 1.29705 3.39476 6 0 0 0 6 0 0 
2521 3 -0.454721 4.06783 2.42579 37.4854 0 0 0 -10.4636 -7.91453 -5.08304 7 3 3 0 10 0 0 
2371 3 -0.34562 3.93479 2.97035 43.2412 0 0 0 -6.90102 -2.54596 5.56308 6 2 2 0 8 0 0 
2425 3 -0.00265872 4.65113 3.05478 46.814 0 0 0 -2.49255 -11.7222 3.52368 6 0 0 0 6 0 0 
1930 5 -0.569546 4.98062 2.52879 -0.0780096 0 0 0 0 0 0 4 3 2 1 7 0.6 -6.07083e-21 
147 1 -0.623181 4.87081 2.42819 14.2096 0 0 0 9.52779 12.9173 -4.21676 1 5 0 5 6 0 0 
375 1 -0.49771 5.42242 2.57421 28.0582 0 0 0 0.33288 12.0362 -3.07525 6 3 2 1 9 0 0 
2435 9 -0.403191 4.96327 2.5233 51.5967 0 0 0 0 0 0 6 3 3 0 9 -0.6 0 
2355 3 -0.474111 5.26996 2.81666 34.7395 0 0 0 12.747 -4.54641 0.923565 5 3 3 0 8 0 0 
1829 6 0.868927 6.05792 2.14666 -9.73417 0 0 0 0 0 0 4 0 0 0 4 0.6 0 
75 2 0.725289 5.99344 2.15468 3.12026 0 0 0 0.242538 -2.07144 5.55389 6 1 0 1 7 0 0 
3429 3 -0.319107 6.06426 2.39662 41.8901 0 0 0 -2.46148 4.38673 -5.16538 9 2 2 0 11 0 0 
471 1 -0.515785 6.15131 2.3895 5.22515 0 1 0 -5.29328 -3.92239 0.128433 1 3 0 3 4 0 0 
3033 3 -0.273173 5.85412 2.5373 49.1267 0 0 0 12.4206 -2.08834 0.372899 6 1 1 0 7 0 0 
324 1 -0.572146 5.55466 2.8618 19.916 0 0 0 5.93671 -13.2855 1.21586 5 4 0 4 9 0 0 
134 1 -0.59083 5.92485 2.75374 10.0936 0 0 0 13.0183 -8.28757 -4.75713 3 5 0 5 8 0 0 
3408 3 -0.324561 6.19153 2.49496 39.268 0 0 0 0.0310921 -9.72201 -6.37783 7 2 2 0 9 0 0 
116 1 -0.46702 6.23071 2.64613 16.8823 0 0 0 2.13903 -7.44997 -13.1044 3 3 0 3 6 0 0 
1827 5 -0.305837 6.77201 2.29204 -7.39996 0 0 0 0 0 0 6 2 2 0 8 0.6 0 
1900 5 -0.472196 6.55336 1.73587 -4.69122 0 0 0 0 0 0 4 3 3 0 7 0.6 0 
1925 6 0.921732 6.8785 2.16341 -0.167641 0 0 0 0 0 0 7 0 0 0 7 0.6 -5.14552e-12 
3491 9 -0.378876 6.76971 1.82633 55.8945 0 0 0 0 0 0 6 2 2 0 8 -0.6 0 
3490 9 -0.348366 6.69637 1.95896 58.6362 0 0 0 0 0 0 5 3 3 0 8 -0.6 0 
660 2 0.814083 6.35139 2.51689 8.03389 0 1 0 1.36451 -2.45122 1.55216 6 0 0 0 6 0 0 
228 1 -0.52621 6.92169 2.94867 22.399 0 0 0 -5.45341 -2.69573 0.5117 4 5 0 5 9 0 0 
1891 5 -0.416845 7.11229 2.80089 -2.1256 0 0 0 0 0 0 4 3 3 0 7 0.6 0 
70 1 -0.629691 7.63676 2.88277 2.10128 0 0 0 7.30842 -0.4448 -4.86169 0 5 1 4 5 0 0 
234 1 -0.409662 7.51629 2.50646 26.1894 0 0 0 -5.78415 -3.71704 -5.89994 4 4 0 4 8 0 0 
2400 3 -0.0177828 7.54456 2.2703 46.2618 0 0 0 5.00988 -8.3249 1.07082 4 0 0 0 4 0 0 
2439 9 -0.249515 7.21104 2.41043 53.3751 0 0 0 0 0 0 6 1 1 0 7 -0.6 0 
2366 4 1.08521 7.53024 3.0064 40.455 0 0 0 -2.68868 0.615829 -1.67064 7 0 0 0 7 0 0 
144 1 -0.536025 7.12816 2.11297 12.2476 0 0 0 -6.12184 9.03044 2.69457 1 4 0 4 5 0 0 
416 1 -0.495235 8.53217 2.10408 28.9933 0 0 0 11.8255 -0.602139 -2.21511 7 4 3 1 11 0 0 
2442 9 -0.132713 8.39168 1.63456 50.1752 0 0 0 0 0 0 8 1 1 0 9 -0.6 0 
2356 3 -0.129191 8.21792 1.96333 34.0122 0 0 0 1.28561 -3.43128 -11.979 5 1 1 0 6 0 0 
3017 3 -0.422583 8.35226 3.0282 31.4948 0 0 0 1.33382 -1.43985 4.34296 8 3 3 0 11 0 0 
2402 3 -0.456227 8.40173 1.88214 43.1415 0 0 0 7.32256 2.55581 3.78315 6 2 2 0 8 0 0 
1924 5 -0.389488 9.05481 2.2919 -5.44265 0 0 0 0 0 0 6 2 2 0 8 0.6 0 
216 1 -0.479676 8.74177 3.01038 17.752 0 0 0 -17.9365 12.2389 -7.47798 4 5 0 5 9 0 0 
59 1 -0.503548 9.19372 2.15692 5.09347 0 0 0 5.19725 -9.55314 7.97781 2 4 0 4 6 0 0 
270 1 -0.489252 9.35517 2.33906 23.8588 0 0 0 -3.69015 -12.4487 -2.89046 4 3 0 3 7 0 0 
3015 3 -0.232378 8.69105 2.87792 38.612 0 0 0 8.08934 -1.03987 -5.09944 9 2 2 0 11 0 0 
1824 5 -0.313399 9.42046 2.75511 -8.03584 0 0 0 0 0 0 6 2 2 0 8 0.6 0 
1890 6 0.907479 10.0861 2.06466 -0.862733 0 0 0 0 0 0 6 1 0 1 7 0.6 -4.91127e-11 
3079 9 -0.408185 9.51589 2.74498 58.7605 0 0 0 0 0 0 5 2 2 0 7 -0.6 0 
141 1 -0.503713 10.0328 1.79536 12.9265 0 0 0 -4.84773 14.738 6.62855 1 4 0 4 5 0 0 
362 2 0.82967 10.0199 1.74681 20.2916 0 0 0 0.372447 1.126 3.29199 6 0 0 0 6 0 0 
3503 9 -0.401 9.43037 2.24772 55.6059 0 0 0 0 0 0 6 3 3 0 9 -0.6 0 
2433 9 -0.289977 9.77918 2.68682 52.7769 0 0 0 0 0 0 5 2 2 0 7 -0.6 0 
102 1 -0.55023 9.54997 2.78095 10.3338 0 0 0 5.0858 2.35463 -3.97817 5 4 0 4 9 0 0 
97 2 0.75062 9.60939 2.74121 2.41894 0 0 0 -1.82128 -3.98903 -0.294142 6 0 0 0 6 0 0 
3038 3 -0.0223487 10.1591 2.28529 48.2212 0 0 0 2.01382 19.555 5.20693 7 0 0 0 7 0 0 
417 2 0.855378 9.43617 1.88217 25.75 0 0 0 2.0516 3.31849 2.14932 7 0 0 0 7 0 0 
80 1 -0.552818 10.5741 2.16089 7.82173 0 0 0 6.68081 7.42176 -0.856617 5 4 0 4 9 0 0 
1266 1 -0.43817 10.464 2.80242 32.6884 0 0 0 -7.6477 -1.23478 -1.09525 7 2 2 0 9 0 0 
3026 3 -0.146963 10.6622 2.93937 44.6673 0 0 0 -3.61752 5.16101 5.13416 9 1 1 0 10 0 0 
3074 10 1.11265 10.5001 1.82277 57.3661 0 0 0 0 0 0 7 0 0 0 7 -0.6 0 
313 1 -0.510832 10.9144 2.41702 18.7665 0 0 0 -8.22585 -2.78738 -5.72118 6 4 0 4 10 0 0 
2345 4 1.16339 10.5177 1.58475 28.9903 0 0 0 -1.59735 2.8674 -3.59665 7 0 0 0 7 0 0 
1806 6 0.991164 11.1571 1.80164 -8.41236 0 0 0 0 0 0 6 0 0 0 6 0.6 0 
1880 5 -0.452796 11.5986 2.41289 -6.64372 0 0 0 0 0 0 7 3 3 0 10 0.6 0 
29 2 0.762818 11.1295 2.03172 5.74127 0 0 0 0.43105 0.205851 -2.21062 7 1 0 1 8 0 0 
931 1 -0.51132 11.3157 3.0802 3.61109 0 0 0 -1.26027 -8.00196 6.64363 4 5 0 5 9 0 0 
1130 1 -0.569158 11.5311 2.21778 25.1582 0 0 0 6.09449 -4.35832 -0.933953 6 4 0 4 10 0 0 
1597 1 -0.452108 11.7421 2.17211 21.4099 0 1 0 9.75086 -10.3139 0.294796 5 4 0 4 9 0 0 
2413 10 1.0549 11.3401 1.5741 52.1335 0 0 0 0 0 0 7 0 0 0 7 -0.6 0 
1845 5 -0.417921 12.329 2.82585 -1.91622 0 0 0 0 0 0 6 3 2 1 9 0.6 0 
1352 1 -0.518731 12.3197 2.52781 34.4797 0 0 0 4.71381 13.0142 2.39269 7 4 4 0 11 0 0 
1011 1 -0.534928 12.0111 2.10768 10.4594 0 0 0 -0.0969294 -3.98666 -2.48486 3 4 0 4 7 0 0 
3071 9 -0.421157 11.8229 2.5958 54.3991 0 0 0 0 0 0 8 3 3 0 11 -0.6 0 
1196 1 -0.575474 11.9613 2.77435 28.2061 0 0 0 1.82989 -3.63227 4.03668 5 4 3 1 9 0 0 
3422 3 -0.383694 11.7607 2.78956 37.6171 0 0 0 -2.47475 4.07876 -6.99455 8 2 2 0 10 0 0 
2708 3 -0.00460802 12.3332 2.83762 46.9109 0 0 0 4.15783 -0.36613 3.05251 7 0 0 0 7 0 0 
105 1 -0.53865 12.3111 1.71943 0.906993 0 0 0 -1.86779 11.8536 1.68126 1 4 1 3 5 0 0 
3453 4 1.08137 12.4796 2.8942 32.2027 0 0 0 -2.07658 -1.39009 0.234224 8 0 0 0 8 0 0 
1932 5 -0.413871 0.203692 4.43928 -4.49393 0 0 0 0 0 0 9 3 3 0 12 0.6 0 
1934 5 -0.63797 0.0220657 4.61709 -0.00290409 0 0 0 0 0 0 3 4 2 2 7 0.6 -1.06999e-16 
40 1 -0.543183 0.312177 4.14292 3.59478 0 0 0 -3.40878 0.645336 6.38348 2 4 0 4 6 0 0 
263 2 0.772499 0.580078 3.23468 13.6589 0 0 0 4.66527 -2.24692 1.41289 5 0 0 0 5 0 0 
445 1 -0.464316 0.591436 3.47226 30.7298 0 0 0 -1.62483 -4.13952 -3.56287 4 3 3 0 7 0 0 
3506 9 -0.317161 0.459843 3.16613 53.5724 0 0 0 0 0 0 6 2 2 0 8 -0.6 0 
3505 9 -0.468597 0.588881 4.05957 56.1078 0 0 0 0 0 0 7 3 3 0 10 -0.6 0 
1065 2 0.771778 0.0767185 3.30557 5.41263 1 0 0 -5.63299 -1.00459 0.757342 5 0 0 0 5 0 0 
3000 4 1.16522 1.0754 4.12304 35.1786 0 0 0 5.44311 -3.7192 -1.32091 7 0 0 0 7 0 0 
155 1 -0.539038 1.18624 4.24733 15.0947 0 0 0 5.40218 5.36469 11.2784 3 4 0 4 7 0 0 
425 2 0.810813 1.47753 3.70488 27.3655 0 0 0 -0.998442 -4.40653 -1.86074 7 0 0 0 7 0 0 
328 2 0.833399 1.15268 3.15128 17.0524 0 0 0 -3.81821 -0.169018 -1.71757 7 0 0 0 7 0 0 
343 2 0.848765 0.891117 3.73953 20.4128 0 0 0 -1.83493 2.20313 -1.29723 8 0 0 0 8 0 0 
361 1 -0.457611 0.850064 3.93377 25.5459 0 0 0 -0.139081 2.50919 7.80506 5 4 1 3 9 0 0 
133 1 -0.595647 0.936627 3.71233 7.37789 0 0 0 -3.76423 1.3501 7.78766 3 4 0 4 7 0 0 
130 2 0.767337 1.5516 4.4756 10.3864 0 0 0 -1.93966 -3.19894 -0.410799 6 0 0 0 6 0 0 
1911 5 -0.499692 2.32441 4.45304 -6.31594 0 0 0 0 0 0 6 3 3 0 9 0.6 0 
1902 5 -0.530435 2.16969 3.94486 -2.58039 0 0 0 0 0 0 7 4 4 0 11 0.6 -5.87227e-18 
142 1 -0.504859 2.06981 4.26215 18.7472 0 0 0 -5.43683 -3.18628 1.52936 4 4 0 4 8 0 0 
2389 3 -0.0297953 2.14883 4.66707 48.197 0 0 0 10.8189 5.6169 1.25406 5 0 0 0 5 0 0 
286 1 -0.430703 1.68085 4.38036 22.4653 0 0 0 5.68265 1.16043 8.21558 5 4 0 4 9 0 0 
3405 3 -0.330527 1.77675 3.62129 33.3135 0 0 0 1.87834 -3.48148 0.545619 7 2 2 0 9 0 0 
3433 3 -0.368809 2.16978 3.79795 41.6451 0 0 0 0.854027 4.80149 3.20514 9 2 2 0 11 0 0 
3458 3 -0.238603 2.03306 3.15557 38.9286 0 0 0 -4.32732 7.69959 -8.31573 8 2 2 0 10 0 0 
2376 3 -0.126023 2.24598 3.97921 45.6178 0 0 0 -0.445946 -5.22998 -4.86193 5 1 1 0 6 0 0 
3082 9 -0.467728 2.60802 4.55348 54.3348 0 0 0 0 0 0 6 3 3 0 9 -0.6 0 
3493 9 -0.535529 2.49021 4.10581 57.8748 0 0 0 0 0 0 7 4 4 0 11 -0.6 0 
46 2 0.829058 2.97223 3.41302 2.92751 0 0 0 2.93058 -0.440968 -0.0537943 6 0 0 0 6 0 0 
201 2 0.73263 2.82333 4.44629 7.3125 0 0 0 4.16373 -0.822943 -4.91184 6 0 0 0 6 0 0 
1013 1 -0.570536 2.95029 3.44495 0.773411 0 0 0 2.23803 3.98236 -4.80092 4 4 1 3 8 0 0 
436 2 0.797005 2.91823 3.40702 24.3348 0 0 0 1.4824 1.16245 0.310085 8 0 0 0 8 0 0 
1384 1 -0.615434 3.14525 3.91515 4.83028 0 0 0 3.8534 -8.09058 -2.4389 3 5 0 5 8 0 0 
339 1 -0.400881 3.03064 3.13719 28.9901 0 0 0 7.40478 7.97066 2.64568 7 3 2 1 10 0 0 
1828 6 1.09323 3.58572 3.80407 -7.64893 0 0 0 0 0 0 6 0 0 0 6 0.6 0 
1867 6 1.04899 3.30649 3.60981 -4.52639 0 0 0 0 0 0 7 0 0 0 7 0.6 0 
276 2 0.739423 3.49232 3.80858 14.2758 0 0 0 1.40659 2.19431 -1.88987 6 0 0 0 6 0 0 
13 1 -0.598275 3.61589 3.74329 9.91282 0 0 0 11.9554 -4.14737 1.73906 2 4 0 4 6 0 0 
173 1 -0.490455 3.49482 3.62552 16.2879 0 0 0 -1.02277 4.38246 -3.51409 3 5 0 5 8 0 0 
2416 3 -0.266853 3.32279 3.46361 50.0978 0 0 0 -8.75965 -9.9553 4.36181 6 2 2 0 8 0 0 
2440 10 1.08683 3.80552 3.93348 52.6778 0 0 0 0 0 0 8 0 0 0 8 -0.6 0 
2473 10 1.10634 3.46069 3.80763 56.0732 0 0 0 0 0 0 7 0 0 0 7 -0.6 0 
364 2 0.838878 3.85221 3.40632 18.8393 0 0 0 -1.91374 0.878069 -4.14618 7 0 0 0 7 0 0 
3486 9 -0.448245 4.43574 4.40931 59.504 0 0 0 0 0 0 4 3 3 0 7 -0.6 0 
3444 4 1.0524 4.46613 4.16635 36.4459 0 0 0 -0.684901 -5.27777 1.18626 8 0 0 0 8 0 0 
600 2 0.691815 4.53284 3.13527 11.6186 0 1 0 1.913 -3.85739 1.05412 6 0 0 0 6 0 0 
1840 5 -0.57638 5.22902 4.62207 -7.10542 0 0 0 0 0 0 5 3 3 0 8 0.6 0 
1906 5 -0.630913 5.17548 4.27486 -4.56039 0 0 0 0 0 0 5 4 3 1 9 0.6 0 
86 2 0.753975 4.93448 4.50488 0.450248 0 0 0 -0.456585 0.772415 1.20327 6 1 0 1 7 0 0 
45 2 0.777942 5.25849 4.22024 5.44214 0 0 0 -1.27267 0.697333 2.04411 7 0 0 0 7 0 0 
77 1 -0.528594 5.16017 4.08308 2.803 0 0 0 6.41867 1.62563 9.80672 0 6 0 6 6 0 0 
423 2 0.834668 4.88226 3.46382 21.7472 0 0 0 0.316386 3.09121 -1.73103 8 0 0 0 8 0 0 
388 1 -0.270333 5.12794 3.89904 32.4712 0 0 0 -0.364107 3.29468 7.51514 5 2 2 0 7 0 0 
3040 4 1.06744 5.47209 4.2716 42.6849 0 0 0 2.15253 -2.43736 1.50709 6 0 0 0 6 0 0 
272 1 -0.360511 4.865 3.15956 25.468 0 0 0 15.2333 11.7997 -0.319515 6 2 0 2 8 0 0 
1865 6 1.06548 5.81927 4.37967 -2.46894 0 0 0 0 0 0 7 0 0 0 7 0.6 0 
3497 9 -0.491583 5.50836 4.19966 56.1782 0 0 0 0 0 0 8 3 3 0 11 -0.6 0 
2472 10 1.04252 6.06197 3.91353 58.1782 0 0 0 0 0 0 7 0 0 0 7 -0.6 0 
3432 3 -0.169629 5.97461 3.95683 44.6032 0 0 0 -10.2697 -13.8273 -4.83303 8 1 1 0 9 0 0 
2457 9 -0.480885 5.5784 4.56866 53.4268 0 0 0 0 0 0 4 3 3 0 7 -0.6 0 
2340 4 1.14311 5.52128 4.39687 28.1747 0 0 0 0.895129 0.118393 1.73219 7 0 0 0 7 0 0 
108 1 -0.591542 6.11065 4.43088 7.47074 0 0 0 -5.00177 -1.91012 3.66996 4 4 0 4 8 0 0 
1805 5 -0.373227 6.62767 4.00303 -9.45241 0 0 0 0 0 0 4 2 2 0 6 0.6 0 
1877 6 1.06315 6.45654 3.53175 -5.79929 0 0 0 0 0 0 7 0 0 0 7 0.6 0 
3488 10 1.13838 6.66434 3.52793 54.7876 0 0 0 0 0 0 7 0 0 0 7 -0.6 0 
3042 9 -0.262463 7.03874 3.7892 50.9563 0 0 0 0 0 0 7 2 2 0 9 -0.6 0 
254 2 0.779043 6.74833 3.29582 13.9629 0 0 0 5.02541 -2.56641 0.61167 7 0 0 0 7 0 0 
398 1 -0.212239 6.49213 3.35553 36.9593 0 0 0 -0.0755002 -4.27157 -4.17234 8 2 2 0 10 0 0 
409 2 0.836171 6.47392 3.13823 24.4276 0 0 0 2.52567 -0.417423 -5.31651 6 0 0 0 6 0 0 
399 1 -0.316221 6.45111 4.07734 30.1009 0 0 0 17.4209 3.62391 2.80258 6 2 2 0 8 0 0 
1914 5 -0.380332 7.77398 4.30295 -4.1304 0 0 0 0 0 0 6 3 3 0 9 0.6 0 
177 2 0.654563 7.34636 4.58521 2.90892 0 0 0 0.548445 -0.151966 3.18602 5 1 0 1 6 0.599798 5.15776e-07 
344 2 0.773174 7.51957 3.47523 20.109 0 0 0 1.92773 1.38345 -2.32003 7 0 0 0 7 0 0 
278 2 0.810882 7.25784 4.39537 17.2117 0 0 0 1.98031 -2.18009 -1.34234 7 0 0 0 7 0 0 
379 1 -0.529916 7.52954 4.25628 27.9342 0 0 0 -5.1008 7.8343 -13.0906 8 3 2 1 11 0 0 
3067 9 -0.349998 7.23269 4.25777 59.8324 0 0 0 0 0 0 3 2 2 0 5 -0.6 0 
2348 3 -0.393095 7.49278 4.37918 42.3315 0 0 0 1.59609 -2.44062 1.10391 8 3 3 0 11 0 0 
277 2 0.803714 7.77876 3.72181 10.7545 0 0 0 -4.48086 0.486294 -1.87543 6 0 0 0 6 0 0 
352 1 -0.274092 7.62501 4.65428 33.506 0 0 0 7.3062 -3.80952 5.80217 3 2 2 0 5 0 0 
1935 5 -0.472233 7.96463 4.65603 -6.81074 0 0 0 0 0 0 6 3 3 0 9 0.6 0 
120 2 0.674078 8.46316 3.98614 6.00504 0 0 0 -0.909579 0.132637 -2.76015 6 1 0 1 7 0.599539 1.21599e-06 
127 1 -0.425881 8.52409 3.669 15.1518 0 0 0 -4.79521 5.41478 -3.69306 5 3 0 3 8 0 0 
3007 4 1.12312 8.33216 4.36524 29.668 0 0 0 -0.720765 0.596206 -0.850697 8 0 0 0 8 0 0 
3089 9 -0.441972 8.34874 4.51124 54.4934 0 0 0 0 0 0 6 3 3 0 9 -0.6 0 
3499 9 -0.490601 7.95354 4.15499 57.1602 0 0 0 0 0 0 5 4 4 0 9 -0.6 0 
3030 3 -0.184305 8.50183 4.27388 44.5839 0 0 0 4.49562 4.43674 -8.20406 8 1 1 0 9 0 0 
2429 3 -0.0374266 7.9065 3.62355 48.3823 0 0 0 0.49263 -7.17601 16.9763 7 0 0 0 7 0 0 
51 1 -0.496759 8.13283 3.14615 8.02754 0 0 0 -11.0957 5.66592 13.4904 5 4 0 4 9 0 0 
347 2 0.834404 9.11579 3.92061 22.7394 0 0 0 -0.295828 1.16287 -1.31231 6 0 0 0 6 0 0 
3500 10 1.03882 8.98239 4.43527 59.0934 0 0 0 0 0 0 5 0 0 0 5 -0.6 0 
3013 3 -0.259097 8.93007 3.80729 36.0456 0 0 0 0.447909 9.43879 8.42165 5 1 1 0 6 0 0 
1848 6 1.05947 9.83582 4.06852 -6.09277 0 0 0 0 0 0 7 0 0 0 7 0.6 0 
1897 5 -0.434398 9.79139 3.66586 -2.06163 0 0 0 0 0 0 6 3 3 0 9 0.6 0 
61 1 -0.655121 9.84928 3.72574 0.514008 0 0 0 1.72998 2.59827 -2.66756 2 5 2 3 7 0 0 
3438 3 -0.0152539 9.95826 4.56805 46.6799 0 0 0 -9.74203 -3.17288 -1.27201 7 0 0 0 7 0 0 
3061 10 1.09503 10.1617 3.85119 54.5896 0 0 0 0 0 0 7 0 0 0 7 -0.6 0 
394 1 -0.420767 9.77681 3.61948 26.5347 0 0 0 1.47803 -7.35805 6.09719 4 3 0 3 7 0 0 
150 2 0.868304 10.1299 3.89129 8.87022 0 0 0 -2.26061 -1.62978 0.567701 7 0 0 0 7 0 0 
2453 4 1.086 9.46189 3.53127 42.9767 0 0 0 -1.80285 2.11619 -3.5627 8 0 0 0 8 0 0 
3050 9 -0.0132926 9.87721 3.91698 50.2651 0 0 0 0 0 0 7 0 0 0 7 -0.6 0 
3004 4 1.11348 9.50733 4.26663 32.7885 0 0 0 -2.26334 1.6483 4.06329 7 0 0 0 7 0 0 
3028 3 -0.33571 9.50999 3.48967 41.038 0 0 0 -12.1186 5.83682 4.55408 6 2 2 0 8 0 0 
1222 1 -0.522257 9.53464 3.72358 20.7703 0 0 0 0.359914 6.41551 3.88171 3 4 0 4 7 0 0 
386 1 -0.459034 10.4076 3.71148 29.9864 0 0 0 -8.70041 3.28304 0.861641 7 3 3 0 10 0 0 
257 2 0.781695 10.8873 3.61119 11.9904 0 0 0 -0.439814 1.44232 -5.53187 7 0 0 0 7 0 0 
247 2 0.809792 10.4301 3.36592 15.6171 0 0 0 1.35018 -2.34879 -0.555385 7 0 0 0 7 0 0 
431 1 -0.49998 10.5529 4.66044 34.4818 0 0 0 -9.04527 1.00985 4.62857 7 3 3 0 10 0 0 
2407 4 1.11402 10.6829 3.62393 36.2008 0 0 0 -2.93705 -1.22707 0.741119 7 0 0 0 7 0 0 
35 1 -0.570129 10.6731 4.23625 6.17365 0 0 0 11.2003 1.20233 7.39667 3 6 0 6 9 0 0 
262 2 0.855143 10.2692 4.5751 18.6196 0 0 0 4.27713 3.06632 -0.644365 7 0 0 0 7 0 0 
1892 5 -0.500741 11.0176 3.80352 -4.48238 0 0 0 0 0 0 6 3 3 0 9 0.6 0 
1144 1 -0.545327 11.2035 3.98492 23.0478 0 0 0 7.63617 14.5322 6.40438 6 4 0 4 10 0 0 
374 2 0.816979 11.599 4.22458 24.87 0 0 0 -0.340126 2.85529 0.115525 8 0 0 0 8 0 0 
3075 9 -0.563186 11.1858 3.69368 56.811 0 0 0 0 0 0 6 4 4 0 10 -0.6 0 
2378 3 -0.286004 11.2837 4.08948 42.6933 0 0 0 7.51447 3.09156 -0.217977 7 2 2 0 9 0 0 
1815 5 -0.486079 12.1889 3.29775 -9.02342 0 0 0 0 0 0 5 3 3 0 8 0.6 0 
14 2 0.799644 11.8588 4.03335 0.309056 0 0 0 1.5693 -2.35118 0.959132 6 0 0 0 6 0 0 
2420 9 -0.424819 12.0813 3.32687 51.6983 0 0 0 0 0 0 8 2 2 0 10 -0.6 0 
1105 1 -0.489419 12.0284 3.4504 13.767 0 0 0 2.35838 1.55857 2.23111 6 4 0 4 10 0 0 