ITEM: TIMESTEP
2500000
ITEM: NUMBER OF ATOMS
3783
ITEM: BOX BOUNDS pp pp ff
0.0000000000000000e+00 2.5084187741634910e+01
0.0000000000000000e+00 2.4878427395809343e+01
-1.0000000000000000e+01 8.0000000000000000e+01
ITEM: ATOMS id type q x y z ix iy iz vx vy vz v_Ocoord v_Mcoord v_Tacoord v_Hfcoord c_ncoord[11] c_locpot[1] c_locpot[2] 
1818 5 -0.280583 0.167498 0.256389 -8.93728 0 0 0 0 0 0 3 1 1 0 4 0.6 0 
1869 5 -0.728208 0.655626 0.338118 -2.8042 0 0 0 0 0 0 6 5 2 3 11 0.6 -2.889e-17 
715 2 0.792671 0.579205 1.14426 10.4592 0 0 0 -0.79747 4.26195 2.5232 6 0 0 0 6 0 0 
3714 3 -0.188067 0.456565 0.676535 43.5268 1 0 0 0.88794 -4.52939 3.21087 8 1 1 0 9 0 0 
3469 9 -0.218462 0.302014 0.293553 52.0023 0 0 0 0 0 0 8 1 1 0 9 -0.6 0 
76 1 -0.534738 0.549961 -0.035337 0.561455 0 0 0 4.24965 -9.40989 -1.47815 2 5 0 5 7 0 0 
2758 4 1.05375 0.387545 1.38735 39.4719 1 0 0 -1.96994 1.67397 -1.68664 7 0 0 0 7 0 0 
674 2 0.794984 0.760856 0.0463948 7.24351 0 0 0 2.13236 -2.27979 -1.16608 7 0 0 0 7 0 0 
881 1 -0.534121 0.484418 1.51679 30.4957 0 0 0 -1.72325 17.1107 -7.88705 4 3 3 0 7 0 0 
1320 1 -0.475021 0.297046 0.844746 25.8064 1 0 0 4.25405 8.92774 0.609808 6 3 1 2 9 0 0 
3403 3 -0.523742 0.577973 1.36544 33.6828 0 0 0 4.71341 -8.48516 -4.66134 7 3 3 0 10 0 0 
1893 5 -0.450555 1.32986 0.192039 -6.05707 0 0 0 0 0 0 6 2 2 0 8 0.6 -2.71391e-18 
1326 2 0.860196 1.39037 0.30616 24.4879 0 0 0 0.131324 0.533222 -1.05494 6 1 1 0 7 0 0 
2475 9 -0.331353 1.05794 0.628025 58.2808 0 0 0 0 0 0 6 2 2 0 8 -0.6 0 
3076 9 -0.429793 1.13701 0.766813 54.4535 0 0 0 0 0 0 6 3 3 0 9 -0.6 0 
3442 3 -0.164336 1.00408 0.482158 45.8156 0 0 0 0.823607 -2.95936 -10.2162 3 1 1 0 4 0 0 
201 2 0.7644 1.25363 1.13857 3.84389 0 0 0 -4.38986 3.13858 -2.41671 6 1 0 1 7 0 0 
2536 3 -0.402031 0.887435 0.26087 41.0006 0 1 0 -3.86443 4.39068 -24.8956 7 3 3 0 10 0 0 
2446 4 1.1388 2.05284 1.51376 44.365 0 0 0 -3.4481 2.29882 3.5118 7 0 0 0 7 0 0 
1628 1 -0.573394 1.86267 0.894866 18.3519 1 1 0 -4.18821 -7.21028 -4.85264 5 4 0 4 9 0 0 
301 1 -0.496028 1.95899 0.78861 20.8321 0 0 0 14.1432 0.973291 -2.36162 3 3 1 2 6 0 0 
2335 3 -0.37089 2.30465 1.2868 38.3682 0 0 0 3.31353 -10.4836 -0.67879 7 3 3 0 10 0 0 
3091 4 1.05138 1.88768 1.39497 28.8243 0 1 0 -3.53181 -1.55898 0.0772459 5 0 0 0 5 0 0 
2767 3 -0.190178 1.50293 0.47862 49.5971 1 0 0 -12.9513 -8.48677 -4.99807 7 1 1 0 8 0 0 
1826 6 0.786932 2.82035 1.35825 -9.71148 0 0 0 0 0 0 3 0 0 0 3 0.6 0 
484 2 0.691452 2.51299 0.505929 -3.30311 0 1 0 -1.69108 -0.174397 1.70438 5 2 2 0 7 0.6 2.01484e-16 
1905 5 -0.592344 3.12562 0.656879 -1.53567 0 0 0 0 0 0 3 3 1 2 6 0.6 -4.62603e-17 
367 1 -0.42092 2.8919 0.743263 26.0671 0 0 0 17.2583 -8.21526 10.454 5 3 2 1 8 0 0 
2492 10 1.13679 3.03295 0.94751 54.0654 0 0 0 0 0 0 8 0 0 0 8 -0.6 0 
360 1 -0.286033 3.1799 0.926553 32.0925 0 0 0 8.97574 0.231766 -6.26255 4 2 2 0 6 0 0 
2456 3 -0.415629 2.82604 0.423044 43.0927 0 0 0 -12.419 -6.20982 -2.09781 8 2 2 0 10 0 0 
24 1 -0.551796 2.47393 0.751062 2.14861 0 0 0 -2.08732 -12.2897 17.0289 4 5 0 5 9 0 0 
1926 6 1.11336 3.22942 0.576211 -6.27741 0 0 0 0 0 0 7 0 0 0 7 0.6 -2.87355e-18 
616 2 0.789287 3.5447 0.498035 9.23464 0 1 0 1.64289 -1.16655 -2.3755 7 0 0 0 7 0 0 
3533 3 -0.180579 3.55789 0.725122 45.4564 0 1 0 -5.98904 -0.725862 -12.0498 6 1 1 0 7 0 0 
3496 9 -0.315951 3.55188 0.82441 59.3525 0 0 0 0 0 0 4 2 2 0 6 -0.6 0 
1692 1 -0.546797 3.22159 0.0457005 23.382 1 1 0 6.07347 -8.04251 -6.73926 2 4 1 3 6 0 0 
1881 5 -0.644484 4.02865 0.365068 -4.42717 0 0 0 0 0 0 5 4 3 1 9 0.6 -3.85384e-17 
376 2 0.863621 4.00041 1.07297 18.6012 0 0 0 -4.24314 -1.0772 -1.17505 6 0 0 0 6 0 0 
3 1 -0.53912 4.56866 0.984642 3.70356 0 0 0 15.1224 -11.3218 8.51447 3 3 0 3 6 0 0 
499 1 -0.549136 4.24356 0.510696 11.0734 0 1 0 2.06468 13.9655 -7.22504 4 4 0 4 8 0 0 
615 2 0.818872 4.3885 0.244384 14.5983 0 1 0 4.53306 0.346549 2.78854 7 0 0 0 7 0 0 
802 2 0.879332 4.5518 1.42859 22.4526 0 1 0 -1.55859 2.94376 3.60082 6 0 0 0 6 0 0 
3512 3 -0.330381 4.37788 0.573062 39.8866 0 1 0 13.4349 -20.4887 -7.30494 6 2 2 0 8 0 0 
3470 3 -0.329397 4.05192 0.741115 49.5765 0 0 0 4.47499 -15.399 -20.1015 6 2 2 0 8 0 0 
2478 9 -0.364174 4.4989 0.348633 56.0416 0 0 0 0 0 0 10 3 3 0 13 -0.6 0 
188 1 -0.487704 4.03887 0.924004 16.4296 0 0 0 -7.92025 -1.81054 6.46609 6 4 0 4 10 0 0 
86 2 0.717248 4.31128 1.45451 1.52505 0 0 0 -1.40769 -0.992438 4.15679 6 0 0 0 6 0 0 
2360 3 -0.22246 3.9704 0.728151 34.5986 0 0 0 -19.824 -0.0128791 7.89943 6 2 2 0 8 0 0 
138 1 -0.557391 4.47561 1.06427 7.35954 0 0 0 0.0918331 11.2094 12.518 3 4 0 4 7 0 0 
155 1 -0.55376 4.60385 1.58426 20.388 0 0 0 10.6793 -1.39848 -3.45471 6 5 0 5 11 0 0 
1812 5 -0.379076 4.7493 0.357605 -7.59754 0 0 0 0 0 0 6 2 2 0 8 0.6 0 
1870 6 1.06096 5.4291 1.00095 -3.18012 0 0 0 0 0 0 7 0 0 0 7 0.6 -6.04626e-18 
2476 10 1.07291 5.14733 0.51148 58.0096 0 0 0 0 0 0 7 0 0 0 7 -0.6 0 
1799 1 -0.274475 5.24966 1.12324 36.84 1 1 0 7.40116 -7.07436 -11.7863 6 2 2 0 8 0 0 
3465 9 -0.258293 4.88682 0.639183 53.2963 0 0 0 0 0 0 8 1 1 0 9 -0.6 0 
3517 4 1.14415 4.74369 1.4933 26.252 0 1 0 2.22983 2.04438 2.38987 6 0 0 0 6 0 0 
2560 3 -0.204776 5.26438 0.585588 42.6256 0 1 0 -3.80888 -4.41057 8.88351 7 1 1 0 8 0 0 
1884 5 -0.581329 6.0128 0.59889 -1.43104 0 0 0 0 0 0 5 4 3 1 9 0.6 -6.60819e-08 
660 2 0.813668 5.59884 0.790383 5.34925 0 1 0 -0.618344 -0.560508 -2.85343 6 0 0 0 6 0 0 
147 1 -0.508566 5.90962 1.31853 18.2813 0 0 0 1.59101 14.9467 6.09264 6 3 0 3 9 0 0 
2608 3 -0.0246691 5.88401 0.75058 47.4324 0 1 0 3.35484 -14.1423 5.09267 5 0 0 0 5 0 0 
808 1 -0.320675 5.8041 0.550749 32.7868 0 0 0 -4.09939 -12.9305 -2.30648 8 2 2 0 10 0 0 
839 1 -0.368658 6.14643 0.90388 30.1949 0 1 0 2.82957 -1.29836 -4.702 6 3 3 0 9 0 0 
771 1 -0.447105 5.82566 0.0936692 25.1343 0 1 0 -4.87674 -0.754266 15.8865 4 3 2 1 7 0 0 
780 1 -0.396357 5.62112 0.481015 27.721 0 1 0 6.40669 7.70338 -6.77503 6 2 2 0 8 0 0 
614 1 -0.537368 6.22363 1.37126 14.9807 0 1 0 4.86322 -2.34368 16.3798 5 4 0 4 9 0 0 
1816 5 -0.381213 6.83056 0.226397 -9.23727 0 0 0 0 0 0 5 2 2 0 7 0.6 0 
2441 10 1.14066 6.31568 1.46177 50.4833 0 0 0 0 0 0 7 0 0 0 7 -0.6 0 
3521 3 -0.349512 6.40442 -0.0208861 38.6366 0 1 0 -20.1799 -11.3658 7.42027 6 3 3 0 9 0 0 
276 2 0.792755 7.31655 0.693122 13.4688 0 0 0 -1.03986 -1.12971 1.2755 6 0 0 0 6 0 0 
2421 9 -0.332423 7.17582 0.25006 52.0375 0 0 0 0 0 0 6 2 2 0 8 -0.6 0 
250 1 -0.517592 7.36919 0.434606 20.21 0 0 0 13.85 10.3996 -4.84857 4 4 0 4 8 0 0 
3097 4 1.11898 7.23603 1.11162 28.6307 0 1 0 1.45807 0.0152937 3.74486 6 0 0 0 6 0 0 
3554 4 1.09292 7.39012 0.315953 36.741 0 1 0 2.64545 4.40215 1.10472 7 0 0 0 7 0 0 
21 1 -0.488833 7.22539 0.61642 7.07794 0 0 0 1.76974 2.19306 -5.29357 3 4 0 4 7 0 0 
129 1 -0.488769 7.01199 1.20711 9.9822 0 0 0 -12.5127 -15.2084 0.920139 2 3 0 3 5 0 0 
1842 5 -0.441261 8.38255 0.0497362 -6.99822 0 0 0 0 0 0 6 3 3 0 9 0.6 0 
1885 6 1.10035 8.31149 0.482112 -5.03262 0 0 0 0 0 0 7 0 0 0 7 0.6 0 
1868 5 -0.609654 8.54344 0.771724 -0.51607 0 0 0 0 0 0 4 4 3 1 8 0.6 -3.05078e-07 
2481 10 1.15497 7.9244 0.174061 55.7445 0 0 0 0 0 0 7 0 0 0 7 -0.6 0 
2474 9 -0.219562 8.53046 0.649621 60.4244 0 0 0 0 0 0 1 1 1 0 2 -0.6 0 
342 1 -0.551182 7.89496 0.921242 26.9528 0 1 0 2.81563 -1.87355 -11.3236 4 3 3 0 7 0 0 
241 1 -0.472676 8.2221 1.50465 24.1098 0 0 0 1.57963 0.0916932 -15.353 5 5 2 3 10 0 0 
2606 3 -0.182892 8.07175 0.272348 43.2261 0 1 0 -2.71718 -16.4817 -2.59175 6 1 1 0 7 0 0 
581 1 -0.453101 8.3822 0.373614 17.0338 0 1 0 5.30769 -5.76377 -5.11555 2 4 0 4 6 0 0 
490 2 0.713398 8.5581 0.189717 3.78003 0 0 0 -2.19849 2.09824 -1.2329 5 1 0 1 6 0.599976 1.1531e-07 
366 1 -0.313209 8.24427 1.26144 31.8018 0 0 0 4.83657 -6.44408 -12.6793 7 3 3 0 10 0 0 
120 2 0.733523 9.19818 0.688304 7.51024 0 0 0 0.849224 0.639126 0.367063 6 0 0 0 6 0.599955 2.11162e-07 
224 1 -0.555022 9.19419 -0.112495 14.5191 0 0 0 -19.4638 -16.7628 -1.7377 1 5 0 5 6 0 0 
2518 3 -0.36478 9.00973 0.847868 34.3017 0 1 0 9.79145 -8.56812 12.4932 5 2 2 0 7 0 0 
2454 3 -0.0243438 8.88825 0.335524 47.9365 0 0 0 -1.14555 -19.3798 1.45453 5 0 0 0 5 0 0 
2459 9 -0.391691 9.09294 0.0120927 54.2051 0 0 0 0 0 0 5 2 2 0 7 -0.6 0 
3502 9 -0.498662 8.72897 0.675267 57.5199 0 0 0 0 0 0 7 3 3 0 10 -0.6 0 
225 1 -0.496802 9.33019 1.55642 21.7869 0 1 0 12.785 15.2926 -0.630536 6 4 0 4 10 0 0 
2 1 -0.525791 9.38664 0.743784 5.54138 0 0 0 2.94812 8.92792 0.580284 4 4 0 4 8 0 0 
1821 5 -0.328016 9.81229 0.341125 -9.1223 0 0 0 0 0 0 4 2 2 0 6 0.6 0 
1923 5 -0.397023 9.58851 1.21719 -2.99592 0 0 0 0 0 0 7 3 3 0 10 0.6 0 
2738 4 0.993751 9.7415 0.261519 30.4873 0 0 0 1.83199 1.0963 3.11581 7 0 0 0 7 0 0 
3051 9 -0.317495 9.97361 0.179156 51.6997 0 0 0 0 0 0 7 2 2 0 9 -0.6 0 
2503 3 -0.434458 9.48907 0.116534 36.6037 0 1 0 1.19098 -7.29455 7.07475 6 3 3 0 9 0 0 
3455 3 -0.306832 10.1081 0.92093 41.6568 0 1 0 8.35047 -6.91299 -15.5037 7 2 2 0 9 0 0 
59 1 -0.57459 9.59561 1.00145 2.29272 0 0 0 -5.3316 -4.08625 6.95658 5 4 0 4 9 0 0 
216 1 -0.443422 10.1026 0.64865 19.5177 0 0 0 2.1356 9.05864 -8.48945 3 3 0 3 6 0 0 
80 1 -0.53511 9.73033 1.37406 9.38313 0 0 0 -1.53525 6.41513 -14.9026 3 3 0 3 6 0 0 
150 2 0.781005 10.4067 0.669814 13.0721 0 0 0 1.8301 3.11867 -4.97714 6 0 0 0 6 0 0 
773 1 -0.389904 10.4616 1.51275 26.6408 0 1 0 -0.561944 7.82625 6.62349 8 3 2 1 11 0 0 
3409 3 -0.502569 10.9183 0.860158 32.0245 0 0 0 3.98203 -2.56505 -19.2819 4 3 3 0 7 0 0 
824 2 0.842772 10.8796 1.16268 24.1254 0 1 0 -2.40345 5.50913 0.165748 8 0 0 0 8 0 0 
2919 4 1.13252 10.8075 0.350788 35.1108 0 1 0 -2.32084 1.78709 2.20802 7 0 0 0 7 0 0 
1846 5 -0.557 11.2173 0.393475 -0.946796 0 0 0 0 0 0 5 4 3 1 9 0.6 -8.57978e-09 
2463 9 -0.333666 11.1931 0.865414 59.0255 0 0 0 0 0 0 4 2 2 0 6 -0.6 0 
795 2 0.802894 11.4048 0.656378 21.0308 0 1 0 1.23401 -1.60942 -1.58137 6 0 0 0 6 0 0 
65 2 0.808916 11.6128 1.16314 2.20161 0 0 0 -3.60372 2.387 -0.272009 6 1 0 1 7 0 0 
644 1 -0.509134 11.424 0.663939 17.4574 0 1 0 11.749 -5.83094 -7.85025 4 4 0 4 8 0 0 
2417 9 -0.210959 11.7162 1.31411 50.0999 0 0 0 0 0 0 6 2 2 0 8 -0.6 0 
29 2 0.778962 11.506 0.147331 5.47944 0 0 0 -2.79205 -2.96696 -2.78113 7 0 0 0 7 0 0 
2348 3 -0.0108528 11.388 0.348718 47.5212 0 0 0 -4.42905 1.52277 0.356895 7 0 0 0 7 0 0 
1927 5 -0.33559 12.1657 1.34918 -4.23881 0 0 0 0 0 0 6 2 2 0 8 0.6 0 
2345 4 1.1507 12.0147 1.21859 27.874 0 0 0 -0.277105 0.224547 3.32646 6 0 0 0 6 0 0 
2581 4 1.08063 11.9737 1.47584 41.3067 0 1 0 -1.8387 -2.3829 0.424439 7 0 0 0 7 0 0 
3450 3 -0.409376 11.7816 1.30327 43.368 0 0 0 1.63614 3.23525 -8.40882 6 2 2 0 8 0 0 
2655 3 -0.35713 12.0338 0.981921 36.5282 0 0 0 1.49067 0.644255 -9.16051 6 2 2 0 8 0 0 
102 1 -0.515017 11.8043 1.45365 11.6811 0 0 0 -0.579444 7.9249 14.0178 3 4 0 4 7 0 0 
1936 5 -0.319566 0.129823 2.95334 -6.77716 0 0 0 0 0 0 6 2 2 0 8 0.6 0 
1916 6 1.05214 0.596862 2.35111 -2.94563 0 0 0 0 0 0 7 2 0 2 9 0.6 -6.98115e-18 
1088 2 0.774461 0.164606 3.08837 7.97836 1 0 0 -2.20087 1.81902 -4.95278 6 0 0 0 6 0 0 
2686 4 1.09643 0.279446 3.0735 26.0838 1 0 0 -2.35625 1.95641 -0.630176 7 0 0 0 7 0 0 
413 2 0.817654 0.513394 1.9215 21.5271 0 0 0 1.14734 -1.41699 -0.324566 8 0 0 0 8 0 0 
3447 3 -0.0268236 0.565469 2.49647 48.2469 0 0 0 5.48679 3.38826 1.57419 7 0 0 0 7 0 0 
28 1 -0.587797 0.719735 1.65637 5.94324 0 0 0 4.13292 -5.4246 6.18089 3 6 0 6 9 0 0 
1861 5 -0.633051 1.21377 2.30287 -1.01995 0 0 0 0 0 0 4 4 2 2 8 0.6 -1.69288e-17 
944 2 0.757527 1.23679 2.1017 1.09578 1 0 0 1.5462 -3.88891 1.59063 6 0 0 0 6 0 0 
1687 2 0.787253 1.08301 2.85477 18.5002 1 0 0 -2.77747 1.46344 -2.13633 6 0 0 0 6 0 0 
235 1 -0.456457 0.974616 2.02258 23.4672 0 0 0 -7.76499 3.85449 -0.084028 7 3 1 2 10 0 0 
2403 4 1.09446 1.35931 2.30497 31.9514 0 0 0 0.413294 1.94925 5.35098 7 0 0 0 7 0 0 
3460 9 -0.125683 0.955826 2.53659 50.7078 0 0 0 0 0 0 7 1 1 0 8 -0.6 0 
2469 9 -0.333573 1.3669 2.80468 59.7112 0 0 0 0 0 0 3 2 2 0 5 -0.6 0 
3084 10 1.06223 0.835443 2.55907 57.7348 0 0 0 0 0 0 7 0 0 0 7 -0.6 0 
1013 1 -0.669391 0.889239 3.02487 3.24458 0 0 0 2.19352 17.0514 -4.56354 4 5 0 5 9 0 0 
1820 5 -0.40296 2.29364 1.75756 -7.90413 0 0 0 0 0 0 5 3 3 0 8 0.6 0 
1871 5 -0.562751 1.98802 2.1715 -4.4454 0 0 0 0 0 0 5 4 3 1 9 0.6 -2.15784e-17 
208 1 -0.617093 2.2453 1.78101 8.4041 0 0 0 1.54979 -0.639846 2.16249 4 6 0 6 10 0 0 
306 2 0.829169 1.83372 1.75788 13.3155 0 0 0 0.923665 -1.82448 -0.962781 6 0 0 0 6 0 0 
845 1 -0.425757 1.92714 2.91365 27.7223 0 1 0 1.10251 -9.72813 2.45025 6 3 2 1 9 0 0 
3485 9 -0.40193 2.30675 2.04141 56.328 0 0 0 0 0 0 7 3 3 0 10 -0.6 0 
2858 3 -0.307012 1.7106 1.67433 35.8147 1 0 0 15.935 6.52076 6.0982 7 2 2 0 9 0 0 
2552 3 -0.314853 1.85588 3.01363 45.3899 0 0 0 -10.8433 1.33421 5.04832 8 2 2 0 10 0 0 
1098 1 -0.597481 1.7753 1.68777 15.7217 1 0 0 0.0739124 -7.98844 -17.8855 3 4 0 4 7 0 0 
207 1 -0.592784 1.9809 2.29142 11.4363 0 0 0 5.43013 -7.51851 7.53705 3 4 0 4 7 0 0 
2371 3 -0.319919 1.69439 2.90997 42.9567 0 0 0 7.19043 2.85349 -2.25407 6 2 2 0 8 0 0 
45 2 0.760893 2.91817 1.92708 6.39141 0 0 0 -2.40707 1.78289 -0.611989 6 0 0 0 6 0 0 
3518 3 -0.330874 2.52914 2.87669 33.4497 0 1 0 -15.473 -8.57643 -12.5053 6 2 2 0 8 0 0 
2437 10 1.12965 2.81319 1.5826 50.598 0 0 0 0 0 0 7 0 0 0 7 -0.6 0 
3049 9 -0.4867 2.67552 2.23409 52.6073 0 0 0 0 0 0 5 3 3 0 8 -0.6 0 
3305 3 -0.267336 2.68134 1.99039 41.0076 1 1 0 5.62933 12.8098 -2.55567 8 2 2 0 10 0 0 
42 1 -0.55898 3.01983 2.76957 4.68321 0 0 0 1.20142 -3.66858 2.15974 3 5 0 5 8 0 0 
2538 3 -0.0537717 3.01935 2.19365 47.4263 0 1 0 -2.96541 -0.452948 5.54987 5 0 0 0 5 0 0 
1866 6 0.959383 3.23203 2.67604 -1.04386 0 0 0 0 0 0 7 0 0 0 7 0.6 -2.11138e-17 
328 2 0.807365 3.3346 2.94998 16.1378 0 0 0 -0.587682 2.31114 3.79023 6 0 0 0 6 0 0 
3066 10 0.950151 3.28341 2.79106 59.2624 0 0 0 0 0 0 5 0 0 0 5 -0.6 0 
3015 3 -0.368798 3.6386 1.96331 29.5341 0 0 0 -6.17798 17.3329 1.40678 5 2 2 0 7 0 0 
622 1 -0.490811 3.63429 2.15671 14.0263 0 1 0 1.80279 3.09173 -8.61393 3 5 0 5 8 0 0 
135 1 -0.5345 3.16571 2.74285 22.2999 0 0 0 -4.52426 8.66319 4.42112 6 3 1 2 9 0 0 
1825 5 -0.564042 4.33362 2.73308 -9.00847 0 0 0 0 0 0 4 3 3 0 7 0.6 0 
1862 5 -0.517899 4.17963 2.44494 -6.12297 0 0 0 0 0 0 7 4 4 0 11 0.6 -1.38646e-20 
1908 5 -0.607912 4.43932 2.71865 -2.80175 0 0 0 0 0 0 6 4 4 0 10 0.6 -5.24761e-18 
3452 4 1.09495 4.49264 2.13948 33.2316 0 0 0 2.49423 -1.21176 0.0615308 8 0 0 0 8 0 0 
268 2 0.829768 4.35814 2.85157 11.4137 0 0 0 3.8155 1.49555 1.07978 8 0 0 0 8 0 0 
2470 9 -0.454954 4.174 2.63235 54.6428 0 0 0 0 0 0 7 4 4 0 11 -0.6 0 
788 1 -0.505508 4.47814 2.98194 27.3803 0 0 0 -4.3406 12.642 -9.11871 6 3 2 1 9 0 0 
261 1 -0.485302 4.61918 2.28643 24.3937 0 0 0 11.6094 -14.0347 3.90169 6 3 1 2 9 0 0 
2487 9 -0.539812 4.49305 2.47126 57.6906 0 0 0 0 0 0 7 4 4 0 11 -0.6 0 
3524 3 -0.284767 3.99931 2.56646 44.0143 0 1 0 12.7224 3.26265 -7.01841 6 2 2 0 8 0 0 
3408 3 -0.340243 4.65522 3.17497 35.2971 0 0 0 2.31446 1.40144 8.5124 7 2 2 0 9 0 0 
1930 5 -0.722899 4.98062 2.52879 -0.0780096 0 0 0 0 0 0 3 4 2 2 7 0.6 -3.36135e-09 
2435 9 -0.411574 4.96327 2.5233 51.5967 0 0 0 0 0 0 5 3 3 0 8 -0.6 0 
899 1 -0.133161 4.97712 2.95235 41.7114 0 0 0 13.408 0.125868 4.99927 6 1 1 0 7 0 0 
585 1 -0.59036 4.75241 2.69914 9.48718 0 1 0 -3.12401 -4.77225 -8.86068 6 5 0 5 11 0 0 
1829 6 0.868193 6.05792 2.14666 -9.73417 0 0 0 0 0 0 4 0 0 0 4 0.6 0 
3457 3 -0.291348 6.09947 2.56745 49.1994 0 0 0 1.67851 16.5992 -0.519517 7 1 1 0 8 0 0 
108 1 -0.58615 6.34567 2.57939 5.68586 0 0 0 6.58487 -13.9099 -14.2929 2 5 0 5 7 0 0 
3537 3 -0.146566 5.5707 2.7921 39.1755 0 1 0 -1.82833 7.51842 11.3978 6 1 1 0 7 0 0 
134 1 -0.51463 6.06812 2.06284 12.4955 0 0 0 -6.58725 5.44197 0.810321 4 4 0 4 8 0 0 
168 2 0.810699 6.09003 1.7919 8.298 0 0 0 0.840881 -2.4963 1.86918 6 0 0 0 6 0 0 
1827 5 -0.307028 6.77201 2.29204 -7.39996 0 0 0 0 0 0 6 2 2 0 8 0.6 0 
1900 5 -0.471309 6.55336 1.73587 -4.69122 0 0 0 0 0 0 4 3 3 0 7 0.6 0 
1925 6 1.069 6.8785 2.16341 -0.167641 0 0 0 0 0 0 7 0 0 0 7 0.6 -3.24826e-07 
75 2 0.762572 6.47654 2.97201 3.17919 0 0 0 -1.50464 1.0114 2.59263 5 0 0 0 5 0 0 
303 1 -0.445487 6.42284 2.15399 22.3308 0 0 0 1.53002 2.96495 9.96344 6 5 0 5 11 0 0 
263 2 0.875543 6.86351 1.96313 16.7598 0 0 0 -0.786777 -0.25692 -1.73558 6 0 0 0 6 0 0 
444 2 0.850621 6.64874 2.22788 19.9946 0 0 0 -3.13819 -0.178493 -2.81457 7 0 0 0 7 0 0 
320 1 -0.434083 6.6968 2.96423 25.7913 0 0 0 -4.08636 7.0465 -5.57259 6 3 2 1 9 0 0 
3490 9 -0.348444 6.69637 1.95896 58.6362 0 0 0 0 0 0 5 3 3 0 8 -0.6 0 
3573 3 -0.191762 6.87356 2.66939 43.5322 0 1 0 -5.99961 -8.76743 3.83942 6 1 1 0 7 0 0 
3491 9 -0.378682 6.76971 1.82633 55.8945 0 0 0 0 0 0 6 2 2 0 8 -0.6 0 
373 1 -0.461581 6.60933 2.71724 33.7991 0 0 0 4.62647 -2.33687 -8.06698 6 3 3 0 9 0 0 
70 1 -0.568579 6.88859 1.54868 1.74455 0 0 0 -3.81011 -8.99793 13.2699 1 4 1 3 5 0 0 
375 1 -0.559115 7.00601 2.8882 28.9158 0 0 0 13.6144 -17.8011 0.548862 4 3 3 0 7 0 0 
1891 5 -0.416515 7.11229 2.80089 -2.1256 0 0 0 0 0 0 4 3 3 0 7 0.6 0 
195 2 0.83968 7.47369 2.77305 11.2254 0 0 0 2.72626 -5.03001 0.434086 5 0 0 0 5 0 0 
2526 3 -0.352831 7.49689 2.23268 36.0727 0 1 0 -7.16047 7.76359 -1.95863 6 3 3 0 9 0 0 
3456 3 -0.327535 7.57007 1.64025 40.9966 0 1 0 -13.6821 0.289651 -6.01119 4 2 2 0 6 0 0 
2439 9 -0.249051 7.21104 2.41043 53.3751 0 0 0 0 0 0 6 1 1 0 7 -0.6 0 
2442 9 -0.129028 8.39168 1.63456 50.1752 0 0 0 0 0 0 7 1 1 0 8 -0.6 0 
625 1 -0.507632 7.95533 2.93782 18.5148 0 1 0 -11.9622 0.764986 2.85451 5 4 0 4 9 0 0 
3399 3 -0.384291 8.43485 1.96356 38.3377 0 0 0 4.2298 -0.433857 -16.3476 5 2 2 0 7 0 0 
84 1 -0.547989 8.39046 2.7041 4.02384 0 0 0 5.21493 0.149272 1.03341 4 4 0 4 8 0 0 
409 2 0.820703 8.54153 3.10239 22.8709 0 0 0 1.16746 2.46919 3.30463 7 0 0 0 7 0 0 
123 1 -0.626346 8.41171 2.76744 15.7322 0 0 0 1.1322 9.72968 -9.58887 3 4 0 4 7 0 0 
2577 4 1.07888 8.52804 2.68506 33.6679 0 1 0 -1.4452 1.45447 -0.366177 8 0 0 0 8 0 0 
2726 3 -0.00383247 7.94232 1.69841 45.7894 0 0 0 -1.80156 -10.9337 -5.72521 6 0 0 0 6 0 0 
1924 5 -0.389771 9.05481 2.2919 -5.44265 0 0 0 0 0 0 6 2 2 0 8 0.6 0 
141 1 -0.574588 8.76946 2.07511 12.7399 0 0 0 -7.87784 -3.19194 4.43972 2 4 0 4 6 0 0 
400 1 -0.431337 9.32687 2.18955 29.6019 0 0 0 8.219 -3.0747 -8.70442 5 4 4 0 9 0 0 
3480 4 1.12255 8.98501 1.78844 39.9431 0 0 0 -4.17732 2.41566 1.37292 6 0 0 0 6 0 0 
3427 4 1.0684 8.69013 2.6132 25.9313 0 0 0 3.05985 0.88834 1.83507 7 0 0 0 7 0 0 
1824 5 -0.313391 9.42046 2.75511 -8.03584 0 0 0 0 0 0 6 2 2 0 8 0.6 0 
1890 6 0.943523 10.0861 2.06466 -0.862733 0 0 0 0 0 0 7 1 0 1 8 0.599999 -3.52708e-06 
89 1 -0.497269 9.77801 2.93978 7.26469 0 0 0 -8.20593 -0.463761 -1.48879 4 5 0 5 9 0 0 
407 2 0.803678 9.72262 2.66634 19.6838 0 0 0 1.27944 -3.99665 0.934512 6 0 0 0 6 0 0 
248 2 0.821526 9.92154 1.57396 16.3512 0 1 0 -1.80551 -1.35442 -0.106488 6 0 0 0 6 0 0 
3503 9 -0.400818 9.43037 2.24772 55.6059 0 0 0 0 0 0 6 3 3 0 9 -0.6 0 
963 2 0.749157 9.97217 2.91693 5.2531 0 0 0 -2.45377 -0.237259 0.377579 6 0 0 0 6 0 0 
2433 9 -0.290057 9.77918 2.68682 52.7769 0 0 0 0 0 0 5 2 2 0 7 -0.6 0 
3079 9 -0.408291 9.51589 2.74498 58.7605 0 0 0 0 0 0 5 2 2 0 7 -0.6 0 
2575 3 -0.196808 9.47909 2.92858 43.0944 0 0 0 -0.325399 -10.5441 3.89397 7 2 2 0 9 0 0 
3074 10 1.11241 10.5001 1.82277 57.3661 0 0 0 0 0 0 7 0 0 0 7 -0.6 0 
2389 3 -0.351342 10.7629 2.16133 39.1314 0 0 0 2.16772 7.23855 3.23794 6 3 3 0 9 0 0 
3422 3 -0.183551 10.5265 2.03847 45.3929 0 0 0 -9.0118 -19.5262 -0.898576 7 1 1 0 8 0 0 
3417 3 -0.330794 10.3727 2.9982 36.7427 0 0 0 7.72124 8.72143 -4.79627 7 2 2 0 9 0 0 
234 1 -0.536962 10.3161 3.04982 24.7642 0 0 0 13.9053 9.70798 6.34953 6 4 1 3 10 0 0 
1806 6 0.991548 11.1571 1.80164 -8.41236 0 0 0 0 0 0 6 0 0 0 6 0.6 0 
1880 5 -0.446833 11.5986 2.41289 -6.64372 0 0 0 0 0 0 7 3 3 0 10 0.6 0 
931 1 -0.58894 11.4604 1.79358 4.03084 0 0 0 3.31336 -3.75584 -5.20185 3 4 0 4 7 0 0 
223 1 -0.596509 11.3307 1.93193 15.0891 0 0 0 0.00810733 6.43169 -2.30517 3 4 0 4 7 0 0 
91 1 -0.632154 11.1472 2.82021 1.02979 0 0 0 0.553437 3.18155 5.08836 3 5 1 4 8 0 0 
3698 4 1.08261 11.3786 2.74368 31.3355 0 1 0 -1.33863 1.59081 -1.73968 8 0 0 0 8 0 0 
197 2 0.78472 11.5091 1.67516 8.87931 0 0 0 1.96016 -2.18327 1.59759 6 0 0 0 6 0 0 
2413 10 1.05429 11.3401 1.5741 52.1335 0 0 0 0 0 0 7 0 0 0 7 -0.6 0 
3413 3 -0.409985 11.0895 2.27779 34.3228 0 0 0 -3.34486 7.287 8.65122 8 3 3 0 11 0 0 
3038 3 -0.0229638 11.2019 2.99421 48.1621 0 0 0 11.5526 3.13175 -2.05108 7 0 0 0 7 0 0 
1845 5 -0.482346 12.329 2.82585 -1.91622 0 0 0 0 0 0 6 3 2 1 9 0.599998 -7.87689e-06 
1011 1 -0.581039 12.4218 2.22712 6.89477 0 0 0 0.794659 8.23745 -6.11715 2 5 0 5 7 0 0 
2418 4 1.1244 12.0984 2.64133 44.407 0 0 0 2.49164 -1.43543 0.968961 6 0 0 0 6 0 0 
3071 9 -0.421064 11.8229 2.5958 54.3991 0 0 0 0 0 0 8 3 3 0 11 -0.6 0 
252 1 -0.464911 11.8022 2.02099 29.7449 0 0 0 -1.1882 -5.85274 9.64274 5 2 2 0 7 0 0 
233 1 -0.533446 11.7331 1.83893 22.6829 0 0 0 -7.84409 -4.79776 -3.06614 4 4 0 4 8 0 0 
1932 5 -0.409491 0.203692 4.43928 -4.49393 0 0 0 0 0 0 9 3 3 0 12 0.6 0 
1934 5 -0.659978 0.0220657 4.61709 -0.00290409 0 0 0 0 0 0 4 4 2 2 8 0.6 -1.00756e-16 
156 2 0.787228 0.495741 3.56119 4.96569 0 0 0 1.77832 -1.22921 -0.169385 7 1 0 1 8 0 0 
3506 9 -0.317284 0.459843 3.16613 53.5724 0 0 0 0 0 0 6 2 2 0 8 -0.6 0 
3505 9 -0.468754 0.588881 4.05957 56.1078 0 0 0 0 0 0 7 3 3 0 10 -0.6 0 
308 1 -0.541659 0.527448 4.32033 17.3377 0 0 0 -0.756959 -1.8789 -1.80346 2 4 0 4 6 0 0 
1778 1 -0.475851 0.491847 4.00239 36.0998 1 0 0 4.29053 5.13933 -7.78833 6 3 3 0 9 0 0 
1138 1 -0.532324 0.72489 4.53528 22.5043 1 0 0 4.8428 -3.70476 2.01144 6 5 1 4 11 0 0 
1230 2 0.791899 0.540195 4.53377 15.0231 1 0 0 -2.68308 -3.33494 -1.11899 5 0 0 0 5 0 0 
960 1 -0.580405 0.729754 4.40316 9.32769 1 0 0 -3.68288 -13.4813 -6.55412 4 5 0 5 9 0 0 
3228 3 -0.00660881 0.164277 4.55516 46.5689 1 0 0 4.0624 -1.35118 21.7322 6 0 0 0 6 0 0 
418 1 -0.294382 0.0245743 3.85107 30.14 0 0 0 4.73142 -3.26288 10.0754 7 3 3 0 10 0 0 
3231 3 -0.446596 1.03753 3.7289 39.7098 1 0 0 -1.61156 5.33853 13.8642 7 3 3 0 10 0 0 
157 1 -0.528711 1.55068 4.04598 13.3102 0 0 0 6.51866 -0.751096 -4.79635 4 4 0 4 8 0 0 
198 2 0.816594 1.20599 4.13129 11.321 0 0 0 2.88677 0.403205 4.45252 7 0 0 0 7 0 0 
1911 5 -0.490247 2.32441 4.45304 -6.31594 0 0 0 0 0 0 6 3 3 0 9 0.6 0 
1902 5 -0.54429 2.16969 3.94486 -2.58039 0 0 0 0 0 0 7 4 4 0 11 0.6 -1.18172e-17 
333 1 -0.419052 2.30561 3.26482 25.4108 0 0 0 12.3839 7.22805 9.90479 6 3 2 1 9 0 0 
3032 4 1.13474 2.02355 4.59448 41.2164 0 0 0 -1.13134 2.66404 -0.434515 7 0 0 0 7 0 0 
3418 4 1.10605 2.22827 3.94425 23.3653 0 0 0 -1.27599 -1.05651 -1.81879 6 0 0 0 6 0 0 
2383 4 1.03999 1.72521 3.98886 37.8042 0 0 0 -0.595526 1.26842 0.137428 6 0 0 0 6 0 0 
133 1 -0.567328 1.73197 4.06841 6.90632 0 0 0 -12.8702 14.651 -0.823661 4 5 0 5 9 0 0 
1659 1 -0.516088 1.61848 3.68286 20.2981 1 1 0 -13.4092 5.80498 -0.484546 5 4 0 4 9 0 0 
3479 3 -0.0238024 1.96473 4.6414 48.5497 1 0 0 7.45211 9.1328 -7.30152 6 0 0 0 6 0 0 
3493 9 -0.535587 2.49021 4.10581 57.8748 0 0 0 0 0 0 7 4 4 0 11 -0.6 0 
4 2 0.796651 2.83894 4.04749 3.1477 0 0 0 2.32396 -2.48223 1.27318 6 0 0 0 6 0 0 
130 2 0.749466 2.77593 3.57833 8.94697 0 0 0 0.049968 -1.52822 1.69907 6 0 0 0 6 0 0 
3082 9 -0.466927 2.60802 4.55348 54.3348 0 0 0 0 0 0 6 3 3 0 9 -0.6 0 
55 1 -0.698735 2.76991 3.42692 1.06272 0 0 0 12.3839 2.0655 -8.76798 2 6 1 5 8 0 0 
1288 1 -0.35931 2.5224 3.65387 30.9673 1 0 0 -6.35197 0.664672 12.2976 6 2 2 0 8 0 0 
116 1 -0.618545 2.32356 4.51429 15.7065 0 0 0 -12.3177 15.6592 12.3176 2 4 0 4 6 0 0 
1828 6 1.08571 3.58572 3.80407 -7.64893 0 0 0 0 0 0 6 0 0 0 6 0.6 0 
1867 6 1.04665 3.30649 3.60981 -4.52639 0 0 0 0 0 0 7 0 0 0 7 0.6 -8.35828e-19 
2473 10 1.10635 3.46069 3.80763 56.0732 0 0 0 0 0 0 7 0 0 0 7 -0.6 0 
423 2 0.869049 3.58998 3.78708 20.4664 0 0 0 -0.44279 -4.85645 0.0742705 7 0 0 0 7 0 0 
3443 3 -0.330367 3.62348 4.35764 40.1389 0 0 0 -10.3011 13.4761 -2.28088 7 2 2 0 9 0 0 
2416 3 -0.269857 3.41012 3.26759 49.8493 0 0 0 4.83429 -9.38671 0.817778 7 1 1 0 8 0 0 
2440 10 1.07892 3.80552 3.93348 52.6778 0 0 0 0 0 0 7 0 0 0 7 -0.6 0 
3136 4 1.06438 3.5652 4.57554 44.5146 0 1 0 0.545601 -0.801401 -2.44134 6 0 0 0 6 0 0 
642 1 -0.501077 3.37792 3.15021 18.5311 0 1 0 3.18952 5.22133 8.37429 4 4 0 4 8 0 0 
436 2 0.849995 3.38464 4.60697 26.8562 0 0 0 5.94612 -1.00928 -3.24536 8 0 0 0 8 0 0 
164 1 -0.566792 3.08937 4.44869 10.7667 0 0 0 -14.9712 -17.1858 -9.49623 5 4 0 4 9 0 0 
2384 3 -0.253151 3.5228 3.23024 37.6156 0 0 0 -3.76091 1.83795 -3.40556 5 1 1 0 6 0 0 
177 2 0.630645 4.624 4.24432 5.30623 0 0 0 -1.42587 -2.18906 1.22104 6 1 0 1 7 0.460019 0.000108532 
3486 9 -0.448421 4.43574 4.40931 59.504 0 0 0 0 0 0 4 3 3 0 7 -0.6 0 
121 1 -0.57041 4.25798 4.48308 7.50284 0 0 0 -4.80741 -6.92222 -2.53817 2 4 0 4 6 0 0 
140 1 -0.57779 4.67631 4.34486 12.9273 0 0 0 -4.26614 -0.285657 -1.1241 4 4 0 4 8 0 0 
1840 5 -0.535477 5.22902 4.62207 -7.10542 0 0 0 0 0 0 5 3 3 0 8 0.6 0 
1906 5 -0.518792 5.17548 4.27486 -4.56039 0 0 0 0 0 0 5 3 3 0 8 0.6 0 
85 2 0.705769 4.78419 4.35399 0.808052 0 0 0 -2.1136 -2.37825 -1.88861 6 0 0 0 6 0 0 
2347 4 1.09807 5.16995 3.35472 29.4148 0 0 0 -1.19837 0.80203 2.77958 7 0 0 0 7 0 0 
77 1 -0.617299 4.7753 3.89022 3.04243 0 0 0 -3.19641 -3.87074 -13.2277 3 5 0 5 8 0 0 
187 1 -0.60381 5.38471 3.17861 16.4032 0 0 0 -3.65686 -7.33819 7.65992 4 4 0 4 8 0 0 
283 1 -0.472677 4.86852 4.56195 21.926 0 0 0 -6.2318 0.000145897 4.83387 7 4 0 4 11 0 0 
386 1 -0.490647 5.05843 3.1267 31.6809 0 0 0 -6.61464 -1.78919 -11.8461 5 3 3 0 8 0 0 
1865 6 1.07663 5.81927 4.37967 -2.46894 0 0 0 0 0 0 7 0 0 0 7 0.6 0 
414 2 0.825283 5.80597 3.78719 24.1835 0 0 0 -2.07347 0.38757 1.86819 6 0 0 0 6 0 0 
2457 9 -0.480132 5.5784 4.56866 53.4268 0 0 0 0 0 0 4 3 3 0 7 -0.6 0 
3497 9 -0.491675 5.50836 4.19966 56.1782 0 0 0 0 0 0 8 3 3 0 11 -0.6 0 
2472 10 1.04246 6.06197 3.91353 58.1782 0 0 0 0 0 0 7 0 0 0 7 -0.6 0 
322 2 0.772657 5.8564 3.49676 14.4756 0 0 0 -1.31605 3.02721 -0.295885 7 0 0 0 7 0 0 
231 1 -0.5263 5.64383 3.82628 19.4454 0 0 0 -5.14265 -0.728457 -6.99898 6 4 0 4 10 0 0 
2656 3 -0.471837 6.1159 4.17383 37.0313 0 0 0 -18.9375 9.25782 11.7792 6 3 3 0 9 0 0 
2365 3 -0.0381914 5.54327 3.19954 46.3367 0 0 0 -10.0359 7.32225 -8.86772 2 0 0 0 2 0 0 
3420 4 1.03367 6.05195 4.48316 32.6419 0 0 0 3.44397 -0.695155 -1.05284 8 0 0 0 8 0 0 
1805 5 -0.374775 6.62767 4.00303 -9.45241 0 0 0 0 0 0 4 2 2 0 6 0.6 0 
1877 6 1.05453 6.45654 3.53175 -5.79929 0 0 0 0 0 0 7 0 0 0 7 0.6 0 
3488 10 1.1384 6.66434 3.52793 54.7876 0 0 0 0 0 0 7 0 0 0 7 -0.6 0 
3042 9 -0.256781 7.03874 3.7892 50.9563 0 0 0 0 0 0 6 2 2 0 8 -0.6 0 
199 1 -0.531957 6.55103 4.34253 10.7735 0 0 0 -12.2005 -0.555457 14.2908 5 4 0 4 9 0 0 
1914 5 -0.384829 7.77398 4.30295 -4.1304 0 0 0 0 0 0 6 3 3 0 9 0.6 0 
272 1 -0.566857 7.29462 4.69491 23.1074 0 0 0 8.42308 2.69087 7.01014 7 4 0 4 11 0 0 
62 1 -0.520806 7.38475 3.56013 8.31574 0 0 0 6.56724 1.59008 2.5237 3 4 0 4 7 0 0 
214 2 0.791392 7.23788 4.01023 6.23895 0 0 0 -0.743607 -0.117739 -1.00985 5 1 0 1 6 0 0 
3067 9 -0.350057 7.23269 4.25777 59.8324 0 0 0 0 0 0 3 2 2 0 5 -0.6 0 
356 1 -0.365086 7.52167 3.65176 31.3344 0 0 0 15.905 -13.4061 -1.21023 7 3 3 0 10 0 0 
2450 4 1.04029 7.20018 3.76538 41.9843 0 0 0 1.88695 3.26796 -1.36673 8 0 0 0 8 0 0 
2374 3 -0.374699 7.0527 4.6036 40.184 0 0 0 -10.1828 -0.849952 1.35113 7 2 2 0 9 0 0 
73 1 -0.482638 7.36429 4.59546 2.30615 0 0 0 -0.881749 4.29275 8.13372 4 4 0 4 8 0 0 
1935 5 -0.477285 7.96463 4.65603 -6.81074 0 0 0 0 0 0 6 3 3 0 9 0.6 0 
290 1 -0.484771 8.26319 3.67112 20.9332 0 0 0 -8.20415 4.54319 5.20915 5 5 0 5 10 0 0 
3499 9 -0.490745 7.95354 4.15499 57.1602 0 0 0 0 0 0 5 4 4 0 9 -0.6 0 
61 1 -0.536261 8.60235 3.15671 0.436826 0 0 0 10.0175 10.9645 -3.75571 5 4 3 1 9 0 0 
3453 4 1.07824 7.87524 4.34269 36.3388 0 0 0 -0.0179693 -3.09805 -2.85282 7 0 0 0 7 0 0 
2429 3 -0.0265305 8.25901 3.50358 47.99 0 0 0 2.74718 7.82294 -9.81567 3 0 0 0 3 0 0 
3089 9 -0.442134 8.34874 4.51124 54.4934 0 0 0 0 0 0 6 3 3 0 9 -0.6 0 
2405 3 -0.0635679 7.87694 4.36669 44.6475 0 0 0 8.42661 -3.19072 14.8609 5 0 0 0 5 0 0 
44 2 0.767218 9.27453 3.25842 2.308 0 0 0 -1.42324 2.92043 0.0918476 6 0 0 0 6 0 0 
3500 10 1.03872 8.98239 4.43527 59.0934 0 0 0 0 0 0 5 0 0 0 5 -0.6 0 
143 2 0.831209 9.2889 4.14334 8.97065 0 0 0 -0.84587 2.15718 -1.07071 6 0 0 0 6 0 0 
294 2 0.77734 9.06348 3.58505 14.0992 0 0 0 -4.62925 0.762693 1.90039 5 0 0 0 5 0 0 
165 1 -0.585594 9.18381 3.82376 10.8289 0 0 0 -3.58538 5.65033 -12.4083 4 4 0 4 8 0 0 
229 2 0.794499 8.94032 4.37945 17.2263 0 0 0 -0.798249 1.20712 3.04514 6 0 0 0 6 0 0 
388 1 -0.518838 9.12859 4.0265 34.9083 0 0 0 1.43539 -3.67525 -4.29938 6 3 3 0 9 0 0 
3007 4 1.12953 8.66133 4.21837 29.3533 0 0 0 2.56584 -5.47284 0.134971 7 0 0 0 7 0 0 
1848 6 1.06204 9.83582 4.06852 -6.09277 0 0 0 0 0 0 7 0 0 0 7 0.6 0 
1897 5 -0.449593 9.79139 3.66586 -2.06163 0 0 0 0 0 0 5 3 3 0 8 0.599999 -2.52094e-06 
416 1 -0.494093 9.52273 3.84478 27.5222 0 0 0 -9.35942 0.860123 -11.4446 6 3 3 0 9 0 0 
389 1 -0.531437 10.0182 3.59085 32.4067 0 0 0 -4.43129 -1.20538 -4.57971 6 3 3 0 9 0 0 
3061 10 1.095 10.1617 3.85119 54.5896 0 0 0 0 0 0 7 0 0 0 7 -0.6 0 
3050 9 -0.0153716 9.87721 3.91698 50.2651 0 0 0 0 0 0 6 0 0 0 6 -0.6 0 
228 1 -0.549765 9.75084 4.62967 22.6016 0 0 0 9.48873 13.1157 -16.8481 7 4 0 4 11 0 0 
2495 3 -0.463611 9.45961 3.61433 40.6366 0 0 0 0.837723 6.7779 17.499 7 3 3 0 10 0 0 
3448 4 1.11266 10.8062 4.32621 38.1881 0 0 0 1.06883 -1.60309 0.902613 7 0 0 0 7 0 0 
3013 3 -0.390813 10.4374 4.52085 30.0695 0 0 0 -9.61734 0.222299 2.30438 7 3 3 0 10 0 0 
218 1 -0.616452 10.5119 3.18039 17.7023 0 0 0 3.70555 -0.0463902 -0.379397 5 5 0 5 10 0 0 
122 1 -0.567312 10.4947 4.42939 12.9467 0 0 0 -6.45842 10.8424 2.35762 2 5 0 5 7 0 0 
1892 5 -0.500952 11.0176 3.80352 -4.48238 0 0 0 0 0 0 6 3 3 0 9 0.6 0 
3075 9 -0.563283 11.1858 3.69368 56.811 0 0 0 0 0 0 6 4 4 0 10 -0.6 0 
284 2 0.772877 11.1234 3.37914 11.3206 0 0 0 -1.36972 3.53772 -1.17379 5 0 0 0 5 0 0 