ITEM: TIMESTEP
3310000
ITEM: NUMBER OF ATOMS
3783
ITEM: BOX BOUNDS pp pp ff
0.0000000000000000e+00 2.5084187741634910e+01
0.0000000000000000e+00 2.4878427395809343e+01
-1.0000000000000000e+01 8.0000000000000000e+01
ITEM: ATOMS id type q x y z ix iy iz vx vy vz v_Ocoord v_Mcoord v_Tacoord v_Hfcoord c_ncoord[11] 
1818 5 -0.259695 0.167498 0.256389 -8.93728 0 0 0 0 0 0 3 1 1 0 4 
1869 5 -0.31247 0.655626 0.338118 -2.8042 0 0 0 0 0 0 6 2 2 0 8 
3469 9 -0.286852 0.302014 0.293553 52.0023 0 0 0 0 0 0 7 1 1 0 8 
522 2 0.83967 0.28033 0.0312065 8.13995 0 1 0 -0.0950107 -0.204438 -2.14836 7 0 0 0 7 
1683 1 -0.527503 0.722261 0.287094 23.8182 0 0 0 1.4365 -0.521721 8.38555 5 4 0 4 9 
3714 3 -0.296468 0.132529 0.545864 42.1961 1 0 0 1.92232 6.08421 -4.53899 6 2 2 0 8 
1326 2 0.810873 0.240839 1.55457 28.8121 0 0 0 -1.52812 1.29622 -2.08743 7 0 0 0 7 
2351 3 -0.28578 0.676595 1.48007 39.6797 0 0 0 -3.59973 -1.5469 4.30992 6 2 2 0 8 
137 1 -0.510306 0.495517 0.0355361 14.3027 0 0 0 -3.26615 3.84189 1.79228 5 3 0 3 8 
1893 5 -0.42833 1.32986 0.192039 -6.05707 0 0 0 0 0 0 6 2 2 0 8 
1384 1 -0.387922 1.36141 0.977881 3.69274 0 0 0 -2.44075 0.233751 2.61344 5 3 0 3 8 
310 1 -0.488868 1.03715 1.16457 21.4278 0 0 0 -2.88652 3.31109 5.85168 4 4 0 4 8 
715 2 0.785138 1.04681 0.22711 16.1829 0 0 0 1.33698 -1.68202 -0.182539 6 0 0 0 6 
346 1 -0.51145 1.1002 0.544051 32.5651 0 0 0 -3.85067 -0.733514 2.76537 5 3 3 0 8 
3442 3 -0.338024 1.50696 0.688191 45.9731 0 0 0 1.90492 8.73756 3.87811 9 2 2 0 11 
2475 9 -0.346284 1.05794 0.628025 58.2808 0 0 0 0 0 0 6 2 2 0 8 
3076 9 -0.439423 1.13701 0.766813 54.4535 0 0 0 0 0 0 6 3 3 0 9 
622 1 -0.517546 2.28712 1.13608 11.6344 0 1 0 -0.666716 1.3702 5.9793 5 4 0 4 9 
2426 3 -0.446621 1.68338 0.71327 49.1352 0 0 0 0.731575 -3.81464 1.15523 6 3 3 0 9 
805 1 -0.534155 1.84337 0.313482 29.5189 0 0 0 -0.946631 -0.343959 -5.75139 5 4 1 3 9 
2364 4 1.08406 1.96216 1.32013 42.1351 0 0 0 -0.721133 1.37381 0.378702 7 0 0 0 7 
161 1 -0.54636 1.7067 1.418 9.31473 0 0 0 4.46119 2.81087 -11.2199 5 4 0 4 9 
1826 6 0.825815 2.82035 1.35825 -9.71148 0 0 0 0 0 0 3 0 0 0 3 
1905 5 -0.196822 3.12562 0.656879 -1.53567 0 0 0 0 0 0 4 1 1 0 5 
24 1 -0.203986 2.82753 1.25023 1.30681 0 0 0 -0.0419626 3.3636 3.84759 3 2 1 1 5 
328 2 0.817866 2.54162 1.43557 18.8045 0 0 0 1.72686 0.0884626 3.14126 7 0 0 0 7 
2492 10 1.12383 3.03295 0.94751 54.0654 0 0 0 0 0 0 8 0 0 0 8 
3458 3 -0.388808 2.48169 -0.00828788 40.7518 0 0 0 6.90745 -3.83105 -0.279756 6 2 2 0 8 
1926 6 1.12322 3.22942 0.576211 -6.27741 0 0 0 0 0 0 7 0 0 0 7 
12 1 -0.481938 3.82232 0.667466 4.65883 0 0 0 -3.74045 3.95708 -3.97117 7 4 0 4 11 
46 2 0.857943 3.30846 0.118007 6.69129 0 0 0 1.22031 -2.0642 -2.63054 6 0 0 0 6 
674 2 0.839873 3.53187 0.883264 9.93023 0 0 0 -1.21537 -1.42667 1.28205 7 0 0 0 7 
788 1 -0.383984 3.30907 0.776963 24.6143 0 0 0 1.09078 4.99729 -1.23478 3 3 0 3 6 
900 1 -0.524943 3.62757 0.345914 32.9258 0 0 0 0.218889 -1.5669 3.14871 5 4 4 0 9 
2358 3 -0.204188 3.18301 0.754348 35.6959 0 0 0 -4.61856 -3.11327 3.87719 5 1 1 0 6 
2379 4 1.06522 3.42702 0.0702621 45.0572 0 1 0 0.018111 -0.622964 2.78481 7 0 0 0 7 
3496 9 -0.335069 3.55188 0.82441 59.3525 0 0 0 0 0 0 4 2 2 0 6 
3023 3 -0.316996 3.71928 0.692363 43.1146 0 0 0 0.630992 1.17829 1.00763 6 2 2 0 8 
135 1 -0.496471 3.07325 0.411787 16.3969 0 0 0 -7.98471 -3.78316 -6.41109 4 4 0 4 8 
1881 5 -0.468544 4.02865 0.365068 -4.42717 0 0 0 0 0 0 5 3 3 0 8 
3470 3 -0.374535 4.41449 0.704798 49.7349 0 0 0 -5.291 -1.39822 -3.12384 6 3 3 0 9 
147 1 -0.473682 4.2995 0.768479 13.1834 0 0 0 -2.1626 -4.54691 2.45768 4 3 0 3 7 
372 1 -0.574586 4.11999 1.45541 27.2753 0 0 0 6.52656 1.03008 -0.394808 3 4 0 4 7 
2478 9 -0.376953 4.4989 0.348633 56.0416 0 0 0 0 0 0 10 3 3 0 13 
3056 3 -0.304841 4.02621 0.213238 47.0693 0 1 0 0.413105 -2.47959 -2.8707 5 2 2 0 7 
138 1 -0.521083 4.55467 0.925771 8.15555 0 0 0 1.5238 2.20102 -3.5882 4 4 0 4 8 
381 1 -0.541516 4.20777 1.33098 30.6588 0 0 0 1.89845 -2.56715 1.08414 5 4 3 1 9 
2387 4 1.11763 4.01044 0.0615918 39.4612 0 0 0 -0.913394 0.691029 -0.745965 6 0 0 0 6 
250 1 -0.517713 4.72919 1.41161 18.3969 0 0 0 6.2309 7.8149 2.83314 6 4 0 4 10 
1812 5 -0.370893 4.7493 0.357605 -7.59754 0 0 0 0 0 0 6 2 2 0 8 
1870 6 1.08229 5.4291 1.00095 -3.18012 0 0 0 0 0 0 7 0 0 0 7 
444 2 0.808668 5.17274 0.748887 25.7238 0 0 0 -2.4129 1.28559 1.63271 7 0 0 0 7 
3465 9 -0.259583 4.88682 0.639183 53.2963 0 0 0 0 0 0 8 1 1 0 9 
2476 10 1.05919 5.14733 0.51148 58.0096 0 0 0 0 0 0 7 0 0 0 7 
1884 5 -0.435723 6.0128 0.59889 -1.43104 0 0 0 0 0 0 7 3 3 0 10 
81 1 -0.463867 6.04135 0.386154 6.07779 0 0 0 -0.812047 2.90432 1.41484 4 4 0 4 8 
107 2 0.866832 5.63149 0.751086 3.92344 0 0 0 -0.79319 -1.86556 -1.69676 6 0 0 0 6 
585 1 -0.565283 5.66786 0.941175 10.7289 0 1 0 -0.353974 0.699876 0.0909343 3 4 0 4 7 
229 2 0.842009 5.67066 1.16476 22.7954 0 0 0 1.04997 0.881083 1.05308 6 0 0 0 6 
231 1 -0.585937 6.02766 1.30406 20.8492 0 0 0 -4.80367 5.22845 0.154779 6 4 0 4 10 
114 1 -0.491785 5.46364 1.49069 15.4961 0 0 0 -1.60098 0.362446 -1.59127 3 4 0 4 7 
1816 5 -0.363483 6.83056 0.226397 -9.23727 0 0 0 0 0 0 5 2 2 0 7 
70 1 -0.394249 6.66263 0.934811 1.26812 0 0 0 -0.157814 3.43904 0.903507 8 2 1 1 10 
660 2 0.835794 6.58744 0.0662065 9.13413 0 1 0 -0.799039 -1.01468 2.16092 6 0 0 0 6 
276 2 0.780788 6.42837 1.38471 17.2995 0 0 0 -1.94042 0.752751 0.814417 6 0 0 0 6 
2495 3 -0.251015 7.02992 1.23464 41.7972 0 0 0 1.52501 -0.249497 -1.92353 7 2 2 0 9 
367 1 -0.481447 6.76562 0.91954 29.4812 0 0 0 -4.64582 -0.100867 -0.631767 5 3 1 2 8 
402 1 -0.466109 6.36377 0.369288 31.9682 0 0 0 2.50541 1.82729 -3.98699 6 3 3 0 9 
3033 3 -0.235695 6.78184 1.07229 46.9276 0 0 0 -4.81157 -1.02339 -1.055 5 2 2 0 7 
2441 10 1.11033 6.31568 1.46177 50.4833 0 0 0 0 0 0 7 0 0 0 7 
218 1 -0.50664 7.31874 0.967491 13.1416 0 0 0 -2.32855 -0.11238 -6.45438 3 4 0 4 7 
2421 9 -0.38869 7.17582 0.25006 52.0375 0 0 0 0 0 0 6 2 2 0 8 
1842 5 -0.429219 8.38255 0.0497362 -6.99822 0 0 0 0 0 0 6 3 3 0 9 
1885 6 1.11765 8.31149 0.482112 -5.03262 0 0 0 0 0 0 7 0 0 0 7 
1868 5 -0.515844 8.54344 0.771724 -0.51607 0 0 0 0 0 0 7 4 3 1 11 
71 2 0.849559 8.39323 0.49842 2.19387 0 0 0 2.80842 0.879031 0.10658 7 0 0 0 7 
490 2 0.853918 8.42776 0.680931 6.1199 0 0 0 -2.67463 -1.31631 -0.259154 7 0 0 0 7 
409 2 0.844823 8.03142 0.842323 27.6789 0 0 0 1.44821 -2.34952 1.82701 7 0 0 0 7 
3427 4 1.15371 8.05347 0.899808 30.9487 0 0 0 0.244246 -0.393787 0.2355 6 0 0 0 6 
3452 4 1.10076 8.42608 0.938121 36.2096 0 0 0 -1.34942 1.16345 2.07985 7 0 0 0 7 
2474 9 -0.247904 8.53046 0.649621 60.4244 0 0 0 0 0 0 1 1 1 0 2 
3457 3 -0.463349 8.22283 0.148945 44.8205 0 0 0 2.84852 2.66169 5.12218 7 3 3 0 10 
2481 10 1.13861 7.9244 0.174061 55.7445 0 0 0 0 0 0 7 0 0 0 7 
21 1 -0.512712 8.50765 0.00564426 8.13688 0 0 0 -0.588295 -5.88203 1.93948 4 4 0 4 8 
480 1 -0.443904 9.20148 0.570268 4.16463 0 1 0 6.99135 0.82654 -5.9422 8 3 0 3 11 
136 2 0.829816 8.83883 0.327454 11.8566 0 0 0 -0.213447 -0.123999 -0.808369 6 0 0 0 6 
3095 3 -0.318071 8.65232 1.09527 38.1786 0 0 0 -3.01182 0.387654 2.39909 7 2 2 0 9 
183 1 -0.497434 8.92233 1.36086 15.1438 0 0 0 -0.0439521 5.04453 3.9508 5 4 0 4 9 
3502 9 -0.508134 8.72897 0.675267 57.5199 0 0 0 0 0 0 7 3 3 0 10 
373 1 -0.543934 9.27394 0.301414 29.3574 0 0 0 2.75176 -3.07487 -0.568885 6 4 1 3 10 
2459 9 -0.402033 9.09294 0.0120927 54.2051 0 0 0 0 0 0 5 2 2 0 7 
3467 3 -0.268763 9.07451 0.628928 47.9905 0 0 0 -6.05082 -0.968928 -5.88585 5 2 2 0 7 
407 2 0.852106 8.67435 0.00566711 24.4333 0 0 0 -0.929949 -1.91717 2.21263 7 0 0 0 7 
1821 5 -0.306013 9.81229 0.341125 -9.1223 0 0 0 0 0 0 4 2 2 0 6 
1923 5 -0.398301 9.58851 1.21719 -2.99592 0 0 0 0 0 0 7 3 3 0 10 
2394 3 -0.531173 9.5202 1.44253 42.832 0 0 0 -1.23316 4.39145 1.02975 9 4 4 0 13 
3051 9 -0.484892 9.97361 0.179156 51.6997 0 0 0 0 0 0 8 3 3 0 11 
284 2 0.79869 9.43721 1.30173 17.1931 0 0 0 -0.500237 -3.10804 0.451401 6 0 0 0 6 
106 1 -0.296532 10.3117 0.780443 1.49257 0 0 0 -1.51901 -3.34169 0.251675 5 3 1 2 8 
80 1 -0.453849 10.6046 0.258206 6.41101 0 0 0 4.20639 0.189615 5.88264 6 4 0 4 10 
223 1 -0.574171 10.4851 0.590891 12.9463 0 0 0 4.76167 -3.39799 0.370654 3 4 0 4 7 
2352 3 -0.363264 10.9146 0.572147 39.3129 0 0 0 0.125336 8.27675 6.38991 5 2 2 0 7 
252 1 -0.499418 10.5878 0.85165 23.7821 0 0 0 2.64188 1.18887 -4.18973 2 4 0 4 6 
206 1 -0.560012 10.2703 0.424669 10.1702 0 0 0 -1.77126 -0.00480166 5.71232 6 4 0 4 10 
1846 5 -0.489432 11.2173 0.393475 -0.946796 0 0 0 0 0 0 5 3 3 0 8 
2454 3 -0.153324 11.6407 0.163617 47.2918 0 0 0 -10.62 -2.16671 2.53518 4 1 1 0 5 
1021 1 -0.469086 11.4547 1.35959 15.8741 0 0 0 0.854628 4.74742 4.91177 3 4 0 4 7 
3402 3 -0.398818 11.195 0.585927 33.9317 0 0 0 -2.30876 0.320152 -4.52082 7 2 2 0 9 
2408 4 1.0292 11.6832 1.39624 44.0096 0 0 0 1.36066 0.797531 -0.979701 8 0 0 0 8 
2417 9 -0.336689 11.7162 1.31411 50.0999 0 0 0 0 0 0 7 3 3 0 10 
2463 9 -0.352197 11.1931 0.865414 59.0255 0 0 0 0 0 0 4 2 2 0 6 
65 2 0.864953 11.0939 1.36541 4.03182 0 0 0 0.911407 0.0872403 1.97112 8 0 0 0 8 
1927 5 -0.332596 12.1657 1.34918 -4.23881 0 0 0 0 0 0 6 2 2 0 8 
29 2 0.800832 12.2141 0.709811 7.82295 0 0 0 -0.311711 -0.0503452 -0.028148 7 0 0 0 7 
197 2 0.832812 11.7869 0.936018 11.3757 0 0 0 1.06029 0.339572 -0.266433 6 0 0 0 6 
1215 2 0.814019 12.3775 0.325064 17.4027 0 0 0 -0.133645 -1.03084 0.391007 6 0 0 0 6 
287 2 0.802865 12.2197 0.646198 20.877 0 0 0 -0.930995 0.437775 -0.99712 6 0 0 0 6 
1264 1 -0.376849 12.0821 0.605548 31.2959 0 0 0 -0.46843 11.7982 5.72088 6 2 1 1 8 
2742 3 -0.270616 11.8212 1.1 41.8622 0 0 0 5.20179 -0.115479 3.02507 6 3 3 0 9 
1936 5 -0.307314 0.129823 2.95334 -6.77716 0 0 0 0 0 0 6 2 2 0 8 
1916 6 1.0716 0.596862 2.35111 -2.94563 0 0 0 0 0 0 7 0 0 0 7 
1013 1 -0.202494 0.342545 2.55266 1.68163 0 0 0 -1.99796 -2.29628 0.991402 5 1 0 1 6 
960 1 -0.522826 0.152829 1.89975 7.37061 1 0 0 -5.1379 -0.937487 1.0945 6 4 0 4 10 
156 2 0.860273 0.429443 1.97324 11.0268 0 0 0 0.467458 0.983722 -0.680339 6 0 0 0 6 
301 1 -0.562909 0.461294 2.08292 18.9603 0 0 0 -1.95524 4.74675 2.45627 3 4 0 4 7 
151 1 -0.528768 0.203075 2.38767 16.3022 0 0 0 -3.2288 -1.01503 -5.11195 3 4 0 4 7 
1209 1 -0.52299 0.42348 2.88692 24.9415 1 0 0 -0.397681 4.59484 -5.42698 6 5 0 5 11 
445 1 -0.557689 0.417335 2.32965 30.6873 0 0 0 3.94101 -1.51248 1.02906 7 4 3 1 11 
3474 4 1.08259 0.71919 1.79201 47.474 0 0 0 0.034724 -1.26856 0.589223 6 0 0 0 6 
1861 5 -0.337802 1.21377 2.30287 -1.01995 0 0 0 0 0 0 6 2 2 0 8 
3460 9 -0.169043 0.955826 2.53659 50.7078 0 0 0 0 0 0 7 1 1 0 8 
3084 10 1.04909 0.835443 2.55907 57.7348 0 0 0 0 0 0 7 0 0 0 7 
2469 9 -0.356901 1.3669 2.80468 59.7112 0 0 0 0 0 0 3 2 2 0 5 
3209 3 -0.149408 0.957488 1.82378 37.0376 1 0 0 2.31478 -1.46299 -3.7101 7 1 1 0 8 
3005 3 -0.278802 1.54042 2.44549 34.4865 0 0 0 -1.80645 1.96529 2.08625 7 2 2 0 9 
2700 3 -0.401802 1.57302 2.1063 43.8234 1 0 0 2.40685 -5.12354 0.807012 9 2 2 0 11 
418 1 -0.504839 1.46053 1.53723 27.0534 0 0 0 -0.121033 -2.58006 -2.36359 6 4 0 4 10 
1820 5 -0.393657 2.29364 1.75756 -7.90413 0 0 0 0 0 0 5 3 3 0 8 
1871 5 -0.4467 1.98802 2.1715 -4.4454 0 0 0 0 0 0 5 3 3 0 8 
201 2 0.854511 1.81683 2.95642 8.1575 0 0 0 1.99944 0.598081 -1.70903 6 0 0 0 6 
376 2 0.860762 2.14897 1.82797 23.1607 0 0 0 0.612224 -0.361187 -1.47413 7 0 0 0 7 
3418 4 1.08902 2.29013 1.65664 31.0267 0 0 0 -1.19081 0.624982 1.46924 7 0 0 0 7 
3485 9 -0.413696 2.30675 2.04141 56.328 0 0 0 0 0 0 7 3 3 0 10 
124 1 -0.56823 2.34885 2.01952 14.2646 0 0 0 5.02314 -0.624599 2.23573 5 4 0 4 9 
86 2 0.876524 2.78381 2.60247 4.71759 0 0 0 0.834347 -0.201498 -0.398668 7 0 0 0 7 
23 1 -0.522107 2.74537 1.99759 6.67152 0 0 0 1.72191 1.14124 -0.00585255 7 4 0 4 11 
3049 9 -0.487038 2.67552 2.23409 52.6073 0 0 0 0 0 0 5 3 3 0 8 
423 2 0.809261 2.75873 2.76532 26.0532 0 0 0 -1.3609 1.6128 -0.811233 7 0 0 0 7 
308 1 -0.529209 2.68927 3.04676 17.4705 0 0 0 -4.15859 4.75112 0.408109 4 4 0 4 8 
2456 3 -0.480862 2.54123 2.64634 47.4088 0 0 0 0.154313 -0.0439638 -2.25356 7 3 3 0 10 
2437 10 1.0515 2.81319 1.5826 50.598 0 0 0 0 0 0 7 0 0 0 7 
1866 6 1.04761 3.23203 2.67604 -1.04386 0 0 0 0 0 0 8 0 0 0 8 
130 2 0.806028 3.45784 2.61184 12.6384 0 0 0 -2.99198 0.912443 -1.12186 7 0 0 0 7 
268 2 0.811166 3.61384 2.34156 15.8556 0 0 0 -0.378003 0.386579 -1.81553 5 0 0 0 5 
3019 3 -0.36615 3.55 1.94388 39.0286 0 0 0 -0.997417 7.22414 -1.19844 5 2 2 0 7 
261 1 -0.396203 3.88615 1.76478 22.1035 0 0 0 9.48154 3.72941 -1.56825 4 3 0 3 7 
3066 10 0.927798 3.28341 2.79106 59.2624 0 0 0 0 0 0 5 0 0 0 5 
2371 3 -0.410203 3.81001 2.03153 45.2697 0 0 0 -0.211476 3.24279 1.70825 7 3 3 0 10 
1825 5 -0.553192 4.33362 2.73308 -9.00847 0 0 0 0 0 0 4 3 3 0 7 
1862 5 -0.508539 4.17963 2.44494 -6.12297 0 0 0 0 0 0 7 4 4 0 11 
1908 5 -0.597462 4.43932 2.71865 -2.80175 0 0 0 0 0 0 6 4 4 0 10 
144 1 -0.512982 4.00634 2.95602 10.4209 0 0 0 -2.75573 -1.01568 -6.52015 4 4 0 4 8 
2450 4 1.04087 4.49076 2.17284 47.6017 0 0 0 0.471695 1.25729 0.871911 8 0 0 0 8 
2487 9 -0.548548 4.49305 2.47126 57.6906 0 0 0 0 0 0 7 4 4 0 11 
2470 9 -0.466246 4.174 2.63235 54.6428 0 0 0 0 0 0 7 4 4 0 11 
360 1 -0.425053 4.42147 2.58814 34.1396 0 0 0 2.61606 2.51073 1.43506 7 2 2 0 9 
3435 3 -0.357719 4.69087 2.65411 41.5958 0 0 0 -0.816508 -1.45534 -0.315362 3 2 2 0 5 
1930 5 -0.444913 4.98062 2.52879 -0.0780096 0 0 0 0 0 0 4 3 2 1 7 
3 1 -0.366295 4.86442 2.12388 2.7534 0 0 0 -0.640126 -3.48886 4.34693 6 2 0 2 8 
75 2 0.815642 5.26351 2.64627 7.21368 0 0 0 -0.989415 -0.151538 -1.08026 8 0 0 0 8 
2347 4 1.07024 5.16068 1.77043 32.6276 0 0 0 0.625218 -1.48254 -0.57235 6 0 0 0 6 
414 2 0.877647 5.13039 2.0893 28.7642 0 0 0 -0.580987 -1.11803 1.57713 6 0 0 0 6 
2435 9 -0.422962 4.96327 2.5233 51.5967 0 0 0 0 0 0 5 3 3 0 8 
322 2 0.802763 4.81811 2.92776 20.2409 0 0 0 0.491847 -0.725146 -0.303843 7 0 0 0 7 
1829 6 0.903425 6.05792 2.14666 -9.73417 0 0 0 0 0 0 4 0 0 0 4 
2438 3 -0.478348 5.89681 2.60659 48.9448 0 0 0 -7.68618 5.51254 -0.244417 7 3 3 0 10 
241 1 -0.500889 5.64556 2.49204 24.3813 0 0 0 2.88721 2.37972 5.6881 2 4 0 4 6 
168 2 0.825348 6.25667 2.85644 10.6205 0 0 0 1.41719 0.489118 0.969529 7 0 0 0 7 
2375 3 -0.3763 6.20562 1.94415 39.3006 0 0 0 2.96031 -2.58395 -2.60456 5 2 2 0 7 
1827 5 -0.295392 6.77201 2.29204 -7.39996 0 0 0 0 0 0 6 2 2 0 8 
1900 5 -0.467758 6.55336 1.73587 -4.69122 0 0 0 0 0 0 4 3 3 0 7 
1925 6 1.11259 6.8785 2.16341 -0.167641 0 0 0 0 0 0 7 0 0 0 7 
3491 9 -0.391202 6.76971 1.82633 55.8945 0 0 0 0 0 0 6 2 2 0 8 
3490 9 -0.362585 6.69637 1.95896 58.6362 0 0 0 0 0 0 5 3 3 0 8 
3015 3 -0.328054 7.05817 2.41902 33.2434 0 0 0 1.27619 -0.787172 -3.65972 5 2 2 0 7 
375 1 -0.512167 6.60984 2.26834 27.1818 0 0 0 -2.00594 -3.18618 2.776 7 4 0 4 11 
2407 4 1.06341 6.81244 2.91043 40.9214 0 0 0 -0.52121 -1.25118 -0.107426 7 0 0 0 7 
3396 3 -0.375876 6.63067 1.66339 36.5982 0 0 0 1.98918 -0.663545 -1.25557 7 2 2 0 9 
134 1 -0.509465 6.96351 2.04001 8.32996 0 0 0 0.0121675 3.02999 6.32506 4 5 0 5 9 
3021 3 -0.205674 6.32739 2.02372 44.0129 0 0 0 -3.04652 9.08649 6.36003 5 1 1 0 6 
1891 5 -0.428166 7.11229 2.80089 -2.1256 0 0 0 0 0 0 5 3 3 0 8 
2439 9 -0.249958 7.21104 2.41043 53.3751 0 0 0 0 0 0 6 1 1 0 7 
162 2 0.855379 7.08301 2.5384 14.324 0 0 0 -0.0562709 -0.472991 -0.196095 7 0 0 0 7 
388 1 -0.400417 7.65287 3.02534 30.5266 0 0 0 -7.0027 0.437859 2.68415 5 3 2 1 8 
98 1 -0.415127 7.14384 2.06007 4.66643 0 0 0 6.26964 3.23412 2.33654 4 3 0 3 7 
59 1 -0.358408 8.4281 2.41788 2.44578 0 0 0 -9.20522 -4.45126 -0.504754 8 2 0 2 10 
188 1 -0.526954 8.31272 2.07732 10.7988 0 0 0 -2.99792 -0.0850411 4.33544 4 4 0 4 8 
2442 9 -0.310444 8.39168 1.63456 50.1752 0 0 0 0 0 0 7 2 2 0 9 
317 1 -0.561625 7.95099 1.74049 18.5731 0 0 0 2.48152 5.48235 -3.69307 5 4 0 4 9 
304 1 -0.462987 8.455 1.89059 25.3106 0 0 0 -2.96997 6.52519 -6.18322 4 4 0 4 8 
2381 4 1.06666 8.17511 2.14754 44.0741 0 0 0 -0.0507937 0.591821 -0.364982 7 0 0 0 7 
294 2 0.785974 7.83239 2.12876 20.5082 0 0 0 -0.983828 1.02058 0.776773 6 0 0 0 6 
270 1 -0.482539 7.88991 1.97157 22.6465 0 0 0 1.10471 -0.899071 5.83054 4 5 0 5 9 
1924 5 -0.376066 9.05481 2.2919 -5.44265 0 0 0 0 0 0 6 2 2 0 8 
51 1 -0.501383 9.00843 2.6443 6.78634 0 0 0 -4.68253 -2.71593 5.74876 3 4 0 4 7 
120 2 0.799254 9.32292 1.7876 8.94121 0 0 0 -1.37597 0.548244 1.16741 7 0 0 0 7 
369 1 -0.49681 9.08492 2.68953 28.0646 0 0 0 -4.43898 -3.78816 -1.52543 5 4 0 4 9 
3027 3 -0.415913 8.89816 2.30648 40.44 0 0 0 8.50949 0.743299 -4.25917 6 3 3 0 9 
3413 3 -0.406221 9.27013 2.17939 35.0648 0 0 0 -2.60255 5.49553 2.62326 7 2 2 0 9 
1824 5 -0.296553 9.42046 2.75511 -8.03584 0 0 0 0 0 0 6 2 2 0 8 
1890 6 1.0636 10.0861 2.06466 -0.862733 0 0 0 0 0 0 8 0 0 0 8 
3503 9 -0.413222 9.43037 2.24772 55.6059 0 0 0 0 0 0 6 3 3 0 9 
319 2 0.807213 10.1107 2.44473 22.6885 0 0 0 1.22976 0.635099 2.75634 6 0 0 0 6 
370 1 -0.438428 9.65777 1.69694 31.7203 0 0 0 -8.17627 0.748963 -2.25178 6 2 2 0 8 
2433 9 -0.296668 9.77918 2.68682 52.7769 0 0 0 0 0 0 5 2 2 0 7 
3079 9 -0.421907 9.51589 2.74498 58.7605 0 0 0 0 0 0 5 2 2 0 7 
347 2 0.830292 10.032 3.09919 26.0856 0 0 0 -0.830973 -0.378554 -0.598398 6 0 0 0 6 
285 1 -0.573091 9.92049 1.60021 20.8302 0 0 0 -0.44047 -0.543126 -0.284578 3 5 0 5 8 
150 2 0.804809 10.6073 2.24684 14.0954 0 0 0 3.32542 -1.01979 -0.110531 6 0 0 0 6 
391 2 0.811742 10.8554 1.69743 28.9494 0 0 0 -0.262137 -2.05635 1.40245 6 0 0 0 6 
3409 3 -0.421145 10.8544 2.54161 37.3172 0 0 0 -1.80192 -1.06147 1.46182 7 3 3 0 10 
3074 10 1.09889 10.5001 1.82277 57.3661 0 0 0 0 0 0 7 0 0 0 7 
3026 3 -0.311308 10.1237 1.78938 45.3748 0 0 0 -9.23573 -4.83051 2.70755 5 2 2 0 7 
1806 6 1.01282 11.1571 1.80164 -8.41236 0 0 0 0 0 0 6 0 0 0 6 
1880 5 -0.440934 11.5986 2.41289 -6.64372 0 0 0 0 0 0 7 3 3 0 10 
102 1 -0.550311 11.0606 2.36043 8.34133 0 0 0 -4.78268 3.02025 3.17931 5 4 0 4 9 
141 1 -0.521374 11.1721 3.10551 11.4118 0 0 0 -2.40777 6.45353 3.10463 1 4 0 4 5 
3038 3 -0.284243 11.0544 2.80142 48.192 0 0 0 3.51852 -3.79379 -5.64167 5 2 2 0 7 
2413 10 1.07766 11.3401 1.5741 52.1335 0 0 0 0 0 0 7 0 0 0 7 
416 1 -0.542886 11.2537 1.71431 26.7783 0 0 0 4.73139 2.46599 8.18422 5 4 0 4 9 
1845 5 -0.354487 12.329 2.82585 -1.91622 0 0 0 0 0 0 6 2 2 0 8 
931 1 -0.428388 12.1098 2.50334 2.8397 0 0 0 2.7389 -0.505024 -2.38247 6 3 0 3 9 
1011 1 -0.419937 12.1998 2.12821 5.62294 0 0 0 3.73143 -9.15733 -6.0453 5 4 0 4 9 
233 1 -0.522767 12.3174 2.34942 21.9699 0 0 0 -3.76518 0.470593 1.3751 1 4 0 4 5 
1222 1 -0.477194 11.9601 1.70132 19.0348 0 0 0 -4.6361 -0.378041 1.38065 4 4 0 4 8 
3071 9 -0.428769 11.8229 2.5958 54.3991 0 0 0 0 0 0 8 3 3 0 11 
3025 4 1.11169 12.5373 1.87714 39.3191 0 0 0 -0.150085 -1.64602 1.65558 8 0 0 0 8 
1932 5 -0.406561 0.203692 4.43928 -4.49393 0 0 0 0 0 0 9 3 3 0 12 
1934 5 -0.462097 0.0220657 4.61709 -0.00290409 0 0 0 0 0 0 6 3 2 1 9 
190 1 -0.513764 0.800791 3.35299 12.4612 0 0 0 2.8347 -2.01678 6.08593 6 4 0 4 10 
306 2 0.825805 0.610292 3.80201 17.8512 0 0 0 1.27307 0.389953 2.0394 6 0 0 0 6 
390 1 -0.517631 0.421035 3.59769 28.3657 0 0 0 6.30609 6.80721 0.468004 7 3 0 3 10 
3451 4 1.09802 0.217768 3.34025 39.7961 1 0 0 -0.590802 -1.01567 -1.51891 6 0 0 0 6 
2397 3 -0.243029 0.111881 4.33691 43.0301 0 0 0 1.19866 5.31172 4.95712 7 1 1 0 8 
2376 3 -0.329784 0.464886 3.25651 46.019 0 0 0 -2.34909 2.63483 -0.995522 7 2 2 0 9 
3506 9 -0.323346 0.459843 3.16613 53.5724 0 0 0 0 0 0 6 2 2 0 8 
3505 9 -0.480422 0.588881 4.05957 56.1078 0 0 0 0 0 0 7 3 3 0 10 
198 2 0.848006 0.582373 3.11709 14.4411 0 0 0 2.80999 -0.105889 -0.83521 6 0 0 0 6 
944 2 0.874567 0.991318 4.49761 1.96191 1 0 0 -0.27958 -0.137888 -0.642485 7 0 0 0 7 
235 1 -0.516253 1.10958 3.66029 22.3132 0 0 0 -1.44935 6.6187 -0.639344 6 4 0 4 10 
208 1 -0.468331 1.47408 4.1448 9.8859 0 0 0 -3.29291 0.442741 -0.247323 5 4 0 4 9 
28 1 -0.451716 0.911167 3.09912 5.20771 0 0 0 1.20753 -1.46561 -1.40294 6 3 0 3 9 
1911 5 -0.480386 2.32441 4.45304 -6.31594 0 0 0 0 0 0 6 3 3 0 9 
1902 5 -0.526751 2.16969 3.94486 -2.58039 0 0 0 0 0 0 7 4 4 0 11 
3392 3 -0.322349 1.92298 4.15028 39.1265 0 0 0 2.5681 4.76203 5.65627 6 2 2 0 8 
2399 4 1.03621 2.28741 3.37835 45.2779 0 0 0 0.508295 0.232085 0.100183 7 0 0 0 7 
2336 3 -0.257379 2.21179 4.24115 36.4412 0 0 0 3.35678 2.26341 8.40861 7 2 2 0 9 
339 1 -0.449596 1.87755 4.59672 26.5307 0 0 0 7.28867 8.29112 10.5843 6 4 0 4 10 
3011 3 -0.58376 1.86374 3.19223 41.4978 0 0 0 -1.65034 4.33243 -3.60065 5 4 4 0 9 
55 1 -0.349583 2.69545 4.02546 0.460774 0 0 0 -0.958336 -0.458831 -1.36086 7 3 1 2 10 
42 1 -0.425041 2.57079 3.52936 2.96338 0 0 0 5.70496 -8.92504 0.36454 5 3 0 3 8 
258 1 -0.465055 2.83748 3.29568 20.1436 0 0 0 1.15955 1.5164 0.295709 4 3 0 3 7 
3493 9 -0.544695 2.49021 4.10581 57.8748 0 0 0 0 0 0 7 4 4 0 11 
312 1 -0.470763 2.9131 3.51577 24.1769 0 0 0 0.183638 0.527858 -2.62044 6 3 0 3 9 
426 1 -0.425513 2.61042 3.33134 31.9524 0 0 0 -3.38303 2.2051 3.67991 4 2 2 0 6 
3082 9 -0.478772 2.60802 4.55348 54.3348 0 0 0 0 0 0 6 3 3 0 9 
361 1 -0.399923 3.00788 3.09263 29.2589 0 0 0 -3.56978 -3.549 1.2673 4 3 1 2 7 
1828 6 1.10024 3.58572 3.80407 -7.64893 0 0 0 0 0 0 6 0 0 0 6 
1867 6 1.04074 3.30649 3.60981 -4.52639 0 0 0 0 0 0 7 0 0 0 7 
121 1 -0.472332 3.7449 3.90573 7.90297 0 0 0 0.0993869 -3.38926 -2.40679 4 4 0 4 8 
2403 4 1.06112 3.53281 3.60826 40.2505 0 0 0 -0.40387 0.953397 -0.0729871 6 0 0 0 6 
3433 3 -0.381998 3.43419 4.04418 43.7228 0 0 0 8.16572 -1.15345 0.276253 5 2 2 0 7 
2416 3 -0.264939 3.3183 3.35115 49.6681 0 0 0 1.63349 0.244186 -5.20403 6 2 2 0 8 
2440 10 1.06231 3.80552 3.93348 52.6778 0 0 0 0 0 0 7 0 0 0 7 
2473 10 1.09173 3.46069 3.80763 56.0732 0 0 0 0 0 0 7 0 0 0 7 
3008 4 1.08496 3.89459 4.26666 35.022 0 0 0 -0.251818 -0.765585 0.123501 7 0 0 0 7 
85 2 0.829312 4.40704 4.06719 2.08406 0 0 0 -0.269045 2.7012 -0.069517 7 0 0 0 7 
13 1 -0.484147 4.5941 3.2475 5.18831 0 0 0 2.4673 5.26816 -0.0528778 4 3 0 3 7 
187 1 -0.449365 4.3485 4.25587 15.6769 0 0 0 1.50341 4.52851 2.80069 1 3 0 3 4 
286 1 -0.50708 4.26493 4.60368 21.9993 0 0 0 -5.31436 3.53585 0.153876 6 4 0 4 10 
256 1 -0.374415 4.51724 4.20514 26.2896 0 0 0 3.40686 4.7098 -5.19375 5 4 0 4 9 
3408 3 -0.290978 4.50288 3.11649 36.8153 0 0 0 3.18378 -0.795531 -9.52893 6 2 2 0 8 
3486 9 -0.46639 4.43574 4.40931 59.504 0 0 0 0 0 0 4 3 3 0 7 
1840 5 -0.524843 5.22902 4.62207 -7.10542 0 0 0 0 0 0 5 3 3 0 8 
1906 5 -0.508961 5.17548 4.27486 -4.56039 0 0 0 0 0 0 5 3 3 0 8 
3429 3 -0.511695 4.97514 4.2164 39.1683 0 0 0 -2.93423 1.99521 -1.03025 7 3 3 0 10 
324 1 -0.463166 5.37286 3.99796 18.4068 0 0 0 -5.05749 4.3074 -0.4251 2 3 0 3 5 
392 1 -0.417246 5.26264 3.57951 31.7269 0 0 0 -1.69391 0.0788419 4.29216 8 3 2 1 11 
1865 6 1.03138 5.81927 4.37967 -2.46894 0 0 0 0 0 0 7 0 0 0 7 
108 1 -0.461435 6.12052 4.34549 9.11611 0 0 0 4.58306 -3.19343 -1.23737 4 4 0 4 8 
358 1 -0.429626 5.62973 3.94689 29.159 0 0 0 -2.58644 -1.71926 4.75177 6 3 0 3 9 
3497 9 -0.502596 5.50836 4.19966 56.1782 0 0 0 0 0 0 8 3 3 0 11 
2457 9 -0.488452 5.5784 4.56866 53.4268 0 0 0 0 0 0 4 3 3 0 7 
3432 3 -0.215849 5.53458 3.42814 46.4452 0 0 0 -0.33502 1.33294 -1.06311 6 1 1 0 7 
2472 10 1.02957 6.06197 3.91353 58.1782 0 0 0 0 0 0 7 0 0 0 7 
3030 3 -0.162279 5.95976 4.68924 43.8068 0 0 0 0.114489 2.38901 3.02756 6 1 1 0 7 
116 1 -0.476624 5.57142 3.2424 12.6576 0 0 0 -4.42093 -1.8426 -2.07898 3 4 0 4 7 
1805 5 -0.355278 6.62767 4.00303 -9.45241 0 0 0 0 0 0 4 2 2 0 6 
1877 6 1.07319 6.45654 3.53175 -5.79929 0 0 0 0 0 0 7 0 0 0 7 
77 1 -0.325909 6.54103 4.17905 2.56753 0 0 0 -6.15423 -2.66051 0.0919786 3 2 0 2 5 
2 1 -0.465221 6.83287 4.27765 6.04713 0 0 0 -8.5187 1.19291 -2.30968 5 4 0 4 9 
290 1 -0.53536 6.4422 3.87476 21.0348 0 0 0 7.08312 -0.308559 -5.76572 5 4 0 4 9 
344 2 0.835225 6.87882 3.40735 25.6532 0 0 0 0.155975 -0.815192 -0.586462 7 0 0 0 7 
2340 4 1.07989 6.60589 4.63914 33.108 0 0 0 0.187718 -0.350849 1.60274 7 0 0 0 7 
3040 4 1.04363 6.96232 4.63948 48.7215 0 0 0 0.306376 -0.973643 0.243609 7 0 0 0 7 
3042 9 -0.366184 7.03874 3.7892 50.9563 0 0 0 0 0 0 6 3 3 0 9 
3488 10 1.12266 6.66434 3.52793 54.7876 0 0 0 0 0 0 7 0 0 0 7 
3403 3 -0.29655 6.32062 4.08184 35.206 0 0 0 1.83715 -1.82693 0.546467 7 3 3 0 10 
3439 4 1.06953 6.27979 3.34758 37.6088 0 0 0 0.806735 0.726201 -0.120666 8 0 0 0 8 
1914 5 -0.377931 7.77398 4.30295 -4.1304 0 0 0 0 0 0 6 3 3 0 9 
199 1 -0.486629 7.35389 4.5839 11.2651 0 0 0 -3.77323 2.52875 -1.18992 6 4 0 4 10 
277 2 0.839679 7.35055 4.36117 18.1626 0 0 0 -0.589694 -0.137072 0.768115 6 0 0 0 6 
299 1 -0.413883 7.27886 3.13771 16.4004 0 0 0 4.04852 -6.61024 2.85232 4 3 0 3 7 
278 2 0.787291 7.37322 4.13039 22.7461 0 0 0 -0.823921 0.0581045 -1.68478 5 0 0 0 5 
2348 3 -0.49495 7.67227 4.21577 39.263 0 0 0 4.01157 -3.16881 0.17885 9 4 4 0 13 
3067 9 -0.372719 7.23269 4.25777 59.8324 0 0 0 0 0 0 3 2 2 0 5 
1935 5 -0.464377 7.96463 4.65603 -6.81074 0 0 0 0 0 0 6 3 3 0 9 
3499 9 -0.500443 7.95354 4.15499 57.1602 0 0 0 0 0 0 5 4 4 0 9 
2429 3 -0.206774 8.24196 3.36809 48.0979 0 0 0 -5.97149 0.440446 3.68735 5 1 1 0 6 
44 2 0.85992 7.98443 3.74149 4.05051 0 0 0 0.975064 0.709787 -0.961192 7 0 0 0 7 
354 2 0.845774 7.83515 4.30548 28.9171 0 0 0 -1.72361 -0.761546 -1.78517 7 0 0 0 7 
3089 9 -0.452126 8.34874 4.51124 54.4934 0 0 0 0 0 0 6 3 3 0 9 
3422 3 -0.398336 8.30375 3.55144 37.0002 0 0 0 -0.0281021 3.64909 -3.90425 7 3 3 0 10 
3028 3 -0.383504 8.06469 3.57179 42.7685 0 0 0 2.4962 1.62283 -1.29658 9 3 3 0 12 
2400 3 -0.336906 8.14211 3.55842 45.5275 0 0 0 -2.9249 -1.61464 -0.812412 6 2 2 0 8 
61 1 -0.506427 8.51957 3.22789 0.0232501 0 0 0 0.702729 0.988842 2.20074 6 3 3 0 9 
97 2 0.799738 7.88917 4.13856 7.82383 0 0 0 1.05349 0.0087292 0.0184066 7 0 0 0 7 
2356 3 -0.399158 8.41896 4.55429 32.6596 0 0 0 -2.52349 -4.63824 2.43409 7 2 2 0 9 
123 1 -0.517729 8.96279 3.38278 13.5613 0 0 0 -0.0585723 3.29094 -2.31167 3 4 0 4 7 
143 2 0.826655 9.25203 3.88602 11.4856 0 0 0 -1.4646 1.18322 -0.0117612 6 0 0 0 6 
129 1 -0.529858 9.24709 4.08939 9.35485 0 0 0 4.56622 2.18426 3.85733 4 4 0 4 8 
325 1 -0.534422 8.62258 4.03249 19.7677 0 0 0 -1.32117 4.51249 -0.43338 3 4 0 4 7 
251 1 -0.523365 8.87109 4.50068 25.1497 0 0 0 -0.651619 0.257446 -1.84313 6 4 0 4 10 
228 1 -0.562233 9.34126 4.27155 22.5726 0 0 0 -0.747065 3.31574 -0.955379 5 4 0 4 9 
3500 10 1.01841 8.98239 4.43527 59.0934 0 0 0 0 0 0 5 0 0 0 5 
1848 6 1.07341 9.83582 4.06852 -6.09277 0 0 0 0 0 0 7 0 0 0 7 
1897 5 -0.439804 9.79139 3.66586 -2.06163 0 0 0 0 0 0 6 3 3 0 9 
217 1 -0.492172 10.0155 3.23811 17.435 0 0 0 0.716005 6.65095 -2.68309 1 3 0 3 4 
89 1 -0.511311 10.0707 3.2192 4.33397 0 0 0 -8.1359 1.68726 -0.802686 7 4 0 4 11 
3007 4 1.11405 9.98923 3.55679 31.8218 0 0 0 1.12101 -0.250902 -0.837318 6 0 0 0 6 
2369 4 1.05929 9.4148 3.34032 38.5926 0 0 0 -1.48941 -1.00221 -0.459069 7 0 0 0 7 
3050 9 -0.231581 9.87721 3.91698 50.2651 0 0 0 0 0 0 7 1 1 0 8 
3061 10 1.08386 10.1617 3.85119 54.5896 0 0 0 0 0 0 7 0 0 0 7 
3453 4 1.10661 10.9013 3.18455 35.3375 0 0 0 -1.41547 -0.873103 -0.680383 6 0 0 0 6 
963 2 0.857634 10.8197 3.59523 6.3274 0 0 0 -2.27713 0.244313 1.09542 7 0 0 0 7 
247 2 0.796776 10.5817 3.25561 19.49 0 0 0 0.317031 0.0668282 0.90487 6 0 0 0 6 
400 1 -0.518072 10.5745 3.48339 29.9793 0 0 0 -1.24815 6.59084 2.52084 4 3 1 2 7 
2738 4 1.05151 10.2237 3.18221 41.7033 0 0 0 1.90607 -1.85258 -0.315893 7 0 0 0 7 
1892 5 -0.493655 11.0176 3.80352 -4.48238 0 0 0 0 0 0 6 3 3 0 9 
2384 3 -0.510074 11.303 3.29676 43.3922 0 0 0 -0.485024 0.314582 7.49484 8 3 3 0 11 
14 2 0.853151 11.0835 4.3614 2.95105 0 0 0 1.33881 -0.717899 -1.00867 7 0 0 0 7 
127 1 -0.541079 11.6524 4.0254 14.2248 0 0 0 3.61479 0.325715 -5.65288 2 4 0 4 6 
2453 4 1.05871 11.7356 4.03774 49.7245 0 0 0 1.15355 -1.14466 0.889341 7 0 0 0 7 
257 2 0.814717 11.4278 4.19169 16.4516 0 0 0 -0.400761 -2.38726 -0.692257 6 0 0 0 6 
323 1 -0.540199 11.1991 3.32522 24.3736 0 0 0 1.23644 1.51948 2.21689 5 5 0 5 10 
3017 3 -0.515816 11.2056 3.26878 33.3824 0 0 0 0.392768 8.65486 0.986696 7 3 3 0 10 
3020 3 -0.48761 11.2642 3.20729 39.9196 0 0 0 -1.5455 -4.22349 3.24652 6 3 3 0 9 
3075 9 -0.573071 11.1858 3.69368 56.811 0 0 0 0 0 0 6 4 4 0 10 
91 1 -0.227039 11.0669 3.46243 0.665254 0 0 0 4.65665 3.76578 2.99343 4 2 1 1 6 
1815 5 -0.470391 12.1889 3.29775 -9.02342 0 0 0 0 0 0 5 3 3 0 8 
1108 2 0.807625 12.176 3.65267 9.56863 0 0 0 -2.21564 0.325549 -0.657586 6 0 0 0 6 
2420 9 -0.583402 12.0813 3.32687 51.6983 0 0 0 0 0 0 8 3 3 0 11 
437 1 -0.476609 12.0082 4.33435 26.9726 0 0 0 -0.584669 4.15773 1.9897 3 5 0 5 8 
2708 3 -0.438834 12.3676 3.1629 45.8516 0 0 0 -4.55943 -2.57723 0.80596 7 3 3 0 10 
950 1 -0.477903 12.4785 4.38429 7.44915 0 0 0 -1.92915 -2.76638 -1.40455 5 4 0 4 9 
1186 1 -0.502314 12.4666 4.19343 18.7359 0 0 0 -2.61271 1.12835 -0.816207 5 4 0 4 9 
1852 6 1.11867 0.480366 5.30889 -6.31282 0 0 0 0 0 0 7 0 0 0 7 
1858 5 -0.434045 0.5374 5.92033 -2.20477 0 0 0 0 0 0 6 3 3 0 9 
72 2 0.848285 0.297747 5.12396 5.50818 0 0 0 -0.856445 0.392047 -0.515239 7 0 0 0 7 
4 2 0.774817 0.554591 5.89802 8.81278 0 0 0 -1.53535 -0.640616 -1.51285 7 0 0 0 7 
3055 9 -0.258624 0.166888 5.15243 50.2001 0 0 0 0 0 0 8 1 1 0 9 
404 1 -0.53006 0.286847 5.08314 30.5766 0 0 0 0.648096 6.17284 -4.86602 7 4 3 1 11 
2341 3 -0.179827 0.444786 5.74861 37.4283 0 0 0 2.4287 -2.12196 2.10038 7 1 1 0 8 
314 1 -0.527694 0.354664 4.82769 19.7442 1 0 0 3.65479 -3.64509 -0.470087 2 5 0 5 7 
2389 3 -0.550246 1.54503 5.49381 44.9693 0 0 0 -1.58887 -0.676096 -1.61567 6 4 4 0 10 
221 2 0.828301 0.930091 5.40161 12.4695 0 0 0 -0.672358 -2.48226 -0.166626 7 0 0 0 7 
2465 10 1.12818 0.805534 5.3623 54.3016 0 0 0 0 0 0 7 0 0 0 7 
3394 4 1.12661 1.48956 4.93441 32.3022 0 0 0 1.36473 -0.642907 0.0385241 6 0 0 0 6 
2425 3 -0.0538561 1.2852 5.07861 47.8963 0 0 0 1.97842 2.32426 -1.03171 8 0 0 0 8 
3483 9 -0.327378 1.15636 6.16434 58.7066 0 0 0 0 0 0 4 2 2 0 6 
155 1 -0.546291 1.56747 4.75508 14.7573 0 0 0 3.8997 3.54426 -0.351362 4 4 0 4 8 
133 1 -0.615273 0.993991 4.68344 7.38921 0 0 0 0.505919 1.42833 6.97643 3 5 0 5 8 