ITEM: TIMESTEP
50000
ITEM: NUMBER OF ATOMS
3783
ITEM: BOX BOUNDS pp pp ff
0.0000000000000000e+00 2.5084187741634910e+01
0.0000000000000000e+00 2.4878427395809343e+01
-1.0000000000000000e+01 8.0000000000000000e+01
ITEM: ATOMS id type q x y z ix iy iz vx vy vz v_Ocoord v_Mcoord v_Tacoord v_Hfcoord c_ncoord[11] 
1818 5 -0.259734 0.167498 0.256389 -8.93728 0 0 0 0 0 0 3 1 1 0 4 
1869 5 -0.310423 0.655626 0.338118 -2.8042 0 0 0 0 0 0 6 2 2 0 8 
31 1 -0.57801 0.736951 0.476538 6.38279 0 0 0 1.90601 -2.67721 2.59106 4 4 0 4 8 
1683 1 -0.584852 0.717709 0.555825 23.3918 0 0 0 -0.882757 -2.80326 -1.06812 4 4 0 4 8 
3714 3 -0.207255 0.36798 0.741585 41.9521 1 0 0 -2.96413 4.09896 -1.86177 6 1 1 0 7 
3469 9 -0.309525 0.302014 0.293553 52.0023 0 0 0 0 0 0 7 2 2 0 9 
1893 5 -0.428408 1.32986 0.192039 -6.05707 0 0 0 0 0 0 6 2 2 0 8 
1384 1 -0.432335 1.3231 0.796071 3.8566 0 0 0 3.28967 -9.1744 4.14352 6 3 0 3 9 
161 1 -0.483852 1.23111 1.33908 9.38195 0 0 0 1.60034 1.58134 3.01136 5 4 0 4 9 
715 2 0.820433 0.960169 0.650211 16.7512 0 0 0 -2.03626 -0.296878 -0.766747 7 0 0 0 7 
418 1 -0.37716 0.950263 1.54265 27.0322 0 0 0 5.16156 -2.07519 1.33945 5 2 0 2 7 
881 1 -0.463861 0.792885 0.221823 31.5613 0 0 0 3.85989 2.74529 -7.26144 7 3 2 1 10 
3442 3 -0.376561 0.982818 0.522944 45.8773 0 0 0 10.043 2.74468 3.90544 7 2 2 0 9 
3076 9 -0.438766 1.13701 0.766813 54.4535 0 0 0 0 0 0 6 3 3 0 9 
2475 9 -0.346346 1.05794 0.628025 58.2808 0 0 0 0 0 0 6 2 2 0 8 
622 1 -0.476131 2.1448 0.176995 11.5064 0 1 0 -2.87078 -1.54471 0.0870088 5 4 0 4 9 
310 1 -0.55045 2.04419 0.586415 21.0031 0 0 0 -0.0758064 -2.43445 3.065 5 4 0 4 9 
805 1 -0.505471 2.00522 1.1213 29.4361 0 0 0 -5.97131 -4.01675 -0.830772 6 4 1 3 10 
3532 3 -0.442232 1.71735 0.128997 34.91 0 1 0 1.30489 4.83117 3.3878 7 3 3 0 10 
2335 3 -0.36498 2.29626 0.319511 38.0167 0 0 0 9.97502 0.0151666 -0.0225106 7 2 2 0 9 
2364 4 1.13987 2.25729 1.04392 42.3543 0 0 0 2.22519 -1.01454 -2.02807 6 0 0 0 6 
2426 3 -0.490849 1.60791 0.703756 49.2691 0 0 0 -4.07542 1.46553 0.310966 6 3 3 0 9 
1826 6 0.825635 2.82035 1.35825 -9.71148 0 0 0 0 0 0 3 0 0 0 3 
1905 5 -0.196422 3.12562 0.656879 -1.53567 0 0 0 0 0 0 4 1 1 0 5 
24 1 -0.229586 2.9142 1.15436 1.80291 0 0 0 1.76685 4.92874 4.76961 5 2 0 2 7 
46 2 0.824593 2.99378 0.451937 6.5235 0 0 0 3.38744 0.545939 -0.133065 7 0 0 0 7 
135 1 -0.499634 2.62681 0.387677 15.6183 0 0 0 1.76863 0.591202 -1.48374 1 3 0 3 4 
376 2 0.832987 2.78008 0.921709 22.7031 0 0 0 -0.453734 2.08089 -1.79461 7 0 0 0 7 
788 1 -0.493696 2.89921 0.64068 24.9279 0 0 0 -5.86142 -2.53207 -0.479318 4 4 0 4 8 
900 1 -0.500749 3.13277 1.25614 33.0354 0 0 0 2.54903 8.25785 2.61817 6 3 3 0 9 
2492 10 1.12434 3.03295 0.94751 54.0654 0 0 0 0 0 0 8 0 0 0 8 
1926 6 1.12309 3.22942 0.576211 -6.27741 0 0 0 0 0 0 7 0 0 0 7 
12 1 -0.514418 3.77927 0.796408 4.68358 0 0 0 6.08687 -9.52925 -2.04146 4 3 0 3 7 
138 1 -0.440317 3.74063 1.3703 8.26812 0 0 0 2.03016 -1.32597 3.22451 6 3 0 3 9 
674 2 0.851012 3.36503 0.103017 9.80143 0 0 0 0.278308 0.024707 -1.18075 8 0 0 0 8 
250 1 -0.462015 3.23929 1.32196 18.3369 0 0 0 0.83194 -7.53923 -6.02047 0 4 0 4 4 
2371 3 -0.47336 3.52174 1.48453 45.2763 0 0 0 -1.74061 1.17787 0.192128 7 3 3 0 10 
3496 9 -0.335189 3.55188 0.82441 59.3525 0 0 0 0 0 0 4 2 2 0 6 
1881 5 -0.468587 4.02865 0.365068 -4.42717 0 0 0 0 0 0 5 3 3 0 8 
147 1 -0.47219 4.3036 0.64208 13.238 0 0 0 5.69248 0.521996 -6.73181 1 3 0 3 4 
263 2 0.813797 4.44339 0.412199 19.7833 0 0 0 -0.634254 1.54023 1.91997 6 0 0 0 6 
303 1 -0.55824 4.67758 0.150153 21.9531 0 0 0 -0.253801 -4.14078 3.75347 3 4 0 4 7 
414 2 0.850679 4.33127 1.51991 28.7845 0 0 0 -0.853877 1.02324 -0.0661869 7 0 0 0 7 
2387 4 1.10898 4.56332 0.253241 39.7289 0 0 0 -1.84975 -2.78478 -3.4259 6 0 0 0 6 
3023 3 -0.240114 4.20344 0.91749 42.7821 0 0 0 -1.79263 10.1735 -4.39983 7 1 1 0 8 
3470 3 -0.390984 4.38919 0.830684 49.6631 0 0 0 -7.39177 -4.49609 1.88052 5 3 3 0 8 
2478 9 -0.377099 4.4989 0.348633 56.0416 0 0 0 0 0 0 10 3 3 0 13 
1812 5 -0.370882 4.7493 0.357605 -7.59754 0 0 0 0 0 0 6 2 2 0 8 
1870 6 1.08554 5.4291 1.00095 -3.18012 0 0 0 0 0 0 7 0 0 0 7 
585 1 -0.585763 5.22894 0.531671 10.4012 0 1 0 1.61425 -0.25217 -3.25577 4 4 0 4 8 
114 1 -0.424869 5.22338 1.47229 15.9365 0 0 0 2.72 3.86857 4.51902 3 3 0 3 6 
2521 3 -0.403137 5.18783 0.630098 34.4223 0 0 0 -2.21395 -6.61957 -0.539365 5 3 3 0 8 
3465 9 -0.260571 4.88682 0.639183 53.2963 0 0 0 0 0 0 8 1 1 0 9 
2476 10 1.05923 5.14733 0.51148 58.0096 0 0 0 0 0 0 7 0 0 0 7 
1884 5 -0.440593 6.0128 0.59889 -1.43104 0 0 0 0 0 0 7 3 3 0 10 
81 1 -0.489256 5.68213 0.245964 6.78958 0 0 0 4.85372 -2.46421 3.27613 5 6 0 6 11 
107 2 0.829198 5.5494 0.291644 4.02685 0 0 0 1.0559 -0.954588 -0.654928 8 0 0 0 8 
229 2 0.844288 6.09299 1.48927 22.6719 0 0 0 0.215286 -0.865261 -0.237976 6 0 0 0 6 
320 1 -0.491496 5.55574 0.578423 24.4104 0 0 0 0.230484 1.37135 -6.71502 6 3 0 3 9 
402 1 -0.539753 6.17667 1.03227 31.9919 0 0 0 -3.82282 2.02863 2.70667 4 3 3 0 7 
2531 3 -0.492958 5.73439 0.335501 38.231 0 1 0 2.45151 1.10516 -2.37896 8 3 3 0 11 
1816 5 -0.363521 6.83056 0.226397 -9.23727 0 0 0 0 0 0 5 2 2 0 7 
367 1 -0.434171 6.39278 0.997486 29.0526 0 0 0 -3.51592 -2.97542 -6.53461 5 3 1 2 8 
3033 3 -0.341644 6.58163 1.13275 47.0229 0 0 0 6.39713 0.693194 -3.91089 7 2 2 0 9 
2381 4 1.07259 6.95024 1.25858 44.7092 0 0 0 0.473973 0.463803 0.505816 6 0 0 0 6 
2441 10 1.12242 6.31568 1.46177 50.4833 0 0 0 0 0 0 7 0 0 0 7 
218 1 -0.528372 7.2741 0.594882 13.4514 0 0 0 2.7358 2.45088 1.61698 2 4 0 4 6 
216 1 -0.507038 7.65903 0.104601 15.9906 0 0 0 1.09399 5.57588 1.28958 7 5 0 5 12 
234 1 -0.533094 7.63918 0.0821594 23.0928 0 0 0 0.862196 2.04911 5.9305 3 4 0 4 7 
3427 4 1.09475 7.67179 1.49098 30.8217 0 0 0 2.62985 0.629946 0.22708 6 0 0 0 6 
3396 3 -0.425294 7.1823 1.30519 36.3635 0 0 0 -9.01208 0.414052 5.36588 5 3 3 0 8 
2495 3 -0.349176 7.54851 1.45604 42.8289 0 0 0 5.1221 -7.90958 -1.55315 5 2 2 0 7 
2421 9 -0.390373 7.17582 0.25006 52.0375 0 0 0 0 0 0 6 3 3 0 9 
1842 5 -0.429189 8.38255 0.0497362 -6.99822 0 0 0 0 0 0 6 3 3 0 9 
1885 6 1.11757 8.31149 0.482112 -5.03262 0 0 0 0 0 0 7 0 0 0 7 
1868 5 -0.511201 8.54344 0.771724 -0.51607 0 0 0 0 0 0 7 4 3 1 11 
71 2 0.850142 8.46614 0.241751 2.23127 0 0 0 -1.3279 1.1488 -0.601352 7 0 0 0 7 
490 2 0.851662 8.26773 0.379565 6.08492 0 0 0 0.110997 1.43981 1.06268 7 0 0 0 7 
21 1 -0.544884 8.3313 0.0814832 8.01512 0 0 0 -1.05142 4.30053 -3.22978 3 4 0 4 7 
317 1 -0.563857 8.1371 1.15021 18.4464 0 0 0 -2.49726 -6.24555 -2.18414 3 4 0 4 7 
409 2 0.824702 7.98663 1.31265 27.5069 0 0 0 -0.188418 -0.386954 -0.15095 5 0 0 0 5 
899 1 -0.236518 7.94721 0.564302 33.9058 0 0 0 -2.06752 -0.955919 -2.4358 6 1 1 0 7 
3457 3 -0.522402 8.43682 0.0602411 45.0077 0 0 0 -2.47858 -5.69047 -4.23267 5 3 3 0 8 
2481 10 1.13861 7.9244 0.174061 55.7445 0 0 0 0 0 0 7 0 0 0 7 
2474 9 -0.24811 8.53046 0.649621 60.4244 0 0 0 0 0 0 1 1 1 0 2 
136 2 0.818319 8.63941 1.09462 11.7007 0 0 0 -2.35184 1.06781 1.24653 6 0 0 0 6 
284 2 0.818575 9.34023 0.928314 16.5944 0 0 0 -1.2582 0.438587 1.33443 7 0 0 0 7 
407 2 0.826846 9.09273 0.617411 24.3167 0 0 0 -0.638842 1.59527 -0.925204 6 0 0 0 6 
373 1 -0.557839 9.04267 1.06413 29.1958 0 0 0 -0.100845 3.38692 3.61429 4 4 1 3 8 
3452 4 1.11809 9.21362 0.756676 35.3546 0 0 0 1.24346 -1.28102 -1.14151 7 0 0 0 7 
3467 3 -0.28518 8.90497 0.440266 47.917 0 0 0 -6.00122 -2.56587 -0.312996 5 2 2 0 7 
2459 9 -0.401818 9.09294 0.0120927 54.2051 0 0 0 0 0 0 5 2 2 0 7 
3502 9 -0.508178 8.72897 0.675267 57.5199 0 0 0 0 0 0 7 3 3 0 10 
1821 5 -0.306072 9.81229 0.341125 -9.1223 0 0 0 0 0 0 4 2 2 0 6 
1923 5 -0.39969 9.58851 1.21719 -2.99592 0 0 0 0 0 0 7 3 3 0 10 
206 1 -0.510913 9.90141 1.08233 9.85875 0 0 0 -4.00789 -2.57011 7.40897 5 4 0 4 9 
285 1 -0.510052 9.54091 1.50264 21.3403 0 0 0 -4.54155 -3.64048 -1.56938 2 4 0 4 6 
2575 3 -0.182814 9.51676 0.102806 41.5618 0 0 0 -1.3585 -2.70697 -1.6279 4 1 1 0 5 
3051 9 -0.490919 9.97361 0.179156 51.6997 0 0 0 0 0 0 8 3 3 0 11 
106 1 -0.258506 10.282 0.773833 1.36408 0 0 0 -2.9034 -2.98622 1.64582 5 2 1 1 7 
80 1 -0.499091 10.2885 0.678663 6.04903 0 0 0 -5.59163 0.202907 -0.246439 4 4 0 4 8 
791 1 -0.444261 10.3725 0.0820587 25.8765 0 1 0 0.268647 -0.314046 -4.71453 5 5 0 5 10 
3402 3 -0.400369 10.859 1.28818 34.2055 0 0 0 -2.73208 -1.59942 3.8016 7 3 3 0 10 
3421 3 -0.415909 10.3462 0.513437 36.8817 0 1 0 -5.92835 -3.10728 0.778183 6 2 2 0 8 
1846 5 -0.486951 11.2173 0.393475 -0.946796 0 0 0 0 0 0 5 3 3 0 8 
197 2 0.823251 11.663 1.42254 11.0026 0 0 0 1.60723 1.56334 0.932318 6 0 0 0 6 
220 2 0.882653 11.5416 0.27162 14.2461 0 1 0 1.14988 1.00205 0.903969 7 0 0 0 7 
287 2 0.858084 11.4851 1.03667 21.222 0 0 0 0.504148 0.592489 -0.1206 6 0 0 0 6 
342 1 -0.530036 11.6128 0.277 29.6265 0 1 0 2.32727 -1.48647 -5.72449 6 4 0 4 10 
2352 3 -0.240079 11.441 0.32249 39.4447 0 0 0 2.00454 -1.59868 -0.047193 7 2 2 0 9 
2408 4 1.04179 11.5985 1.3319 44.1903 0 0 0 -0.587194 -0.563543 -0.0246874 6 0 0 0 6 
2417 9 -0.346794 11.7162 1.31411 50.0999 0 0 0 0 0 0 5 3 3 0 8 
2463 9 -0.352288 11.1931 0.865414 59.0255 0 0 0 0 0 0 4 2 2 0 6 
1927 5 -0.332626 12.1657 1.34918 -4.23881 0 0 0 0 0 0 6 2 2 0 8 
29 2 0.830762 12.1419 1.16205 7.6311 0 0 0 -2.78284 2.03728 1.33703 8 0 0 0 8 
1215 2 0.83104 12.0514 1.23755 17.8212 0 0 0 0.632235 0.880866 -0.60013 6 0 0 0 6 
1021 1 -0.491265 12.3004 1.22562 15.8733 0 0 0 -5.27586 2.7904 -2.1885 5 3 0 3 8 
362 2 0.830879 12.3461 1.25576 24.7457 0 0 0 -0.300861 1.92991 -0.613744 7 0 0 0 7 
1130 1 -0.484448 12.4342 0.643213 22.8545 0 0 0 -0.608756 0.315291 4.4486 2 3 0 3 5 
2742 3 -0.287038 12.3933 0.746717 42.0887 0 0 0 -3.67243 9.92167 -4.59616 5 2 2 0 7 
2454 3 -0.137923 11.8039 0.217833 47.3217 0 0 0 -1.4471 1.31761 2.89364 5 1 1 0 6 
1936 5 -0.307362 0.129823 2.95334 -6.77716 0 0 0 0 0 0 6 2 2 0 8 
1916 6 1.0699 0.596862 2.35111 -2.94563 0 0 0 0 0 0 7 0 0 0 7 
1013 1 -0.177653 0.703536 2.66689 1.61455 0 0 0 -7.35588 -6.81454 2.71307 7 1 0 1 8 
235 1 -0.563611 0.507295 2.80129 21.722 0 0 0 -3.98099 -6.09191 -3.74217 1 4 0 4 5 
301 1 -0.520007 0.0832833 1.92475 18.5349 0 0 0 -3.63654 -2.96025 1.16226 4 4 0 4 8 
413 2 0.821009 0.739192 1.69321 25.0411 0 0 0 -1.44528 -0.415187 0.699388 7 0 0 0 7 
445 1 -0.512264 0.301915 2.76536 30.8508 0 0 0 2.18547 4.75962 -6.08016 5 4 3 1 9 
346 1 -0.271673 0.533431 2.03819 33.5899 0 0 0 4.51485 -1.41853 -1.70323 6 2 2 0 8 
1326 2 0.850708 0.0489131 1.73564 28.9312 0 0 0 -0.591215 -0.376578 -0.0780856 7 0 0 0 7 
1861 5 -0.325933 1.21377 2.30287 -1.01995 0 0 0 0 0 0 6 2 2 0 8 
201 2 0.836045 1.33809 2.90173 8.07957 0 0 0 1.84422 0.970032 2.04313 6 0 0 0 6 
156 2 0.871512 1.41948 2.28 11.3815 0 0 0 1.13754 0.215118 0.203987 7 0 0 0 7 
151 1 -0.544906 1.265 2.78514 16.4308 0 0 0 5.61168 7.13392 0.636947 3 4 0 4 7 
328 2 0.772335 1.54907 2.25929 19.8431 0 0 0 -1.56614 0.992356 -0.0521947 5 0 0 0 5 
2342 4 1.09838 1.54198 1.65332 36.5885 0 0 0 -0.691807 0.655537 1.01058 6 0 0 0 6 
2351 3 -0.393895 0.806729 2.47005 38.7065 0 0 0 4.10383 0.603577 -5.21065 4 3 3 0 7 
3474 4 1.03838 0.920958 1.87679 47.5755 0 0 0 1.03653 -0.513517 1.56739 6 0 0 0 6 
2700 3 -0.371071 1.51984 2.25881 43.8279 1 0 0 5.2383 -5.16478 1.23515 6 2 2 0 8 
3460 9 -0.181185 0.955826 2.53659 50.7078 0 0 0 0 0 0 6 1 1 0 7 
3084 10 1.04911 0.835443 2.55907 57.7348 0 0 0 0 0 0 7 0 0 0 7 
2469 9 -0.357021 1.3669 2.80468 59.7112 0 0 0 0 0 0 3 2 2 0 5 
1820 5 -0.393652 2.29364 1.75756 -7.90413 0 0 0 0 0 0 5 3 3 0 8 
1871 5 -0.446705 1.98802 2.1715 -4.4454 0 0 0 0 0 0 5 3 3 0 8 
124 1 -0.561416 1.9231 1.97391 13.4113 0 0 0 5.08478 9.66118 -4.32612 4 4 0 4 8 
3418 4 1.08618 2.1308 1.94297 31.3363 0 0 0 -0.432197 0.83545 0.711315 7 0 0 0 7 
3011 3 -0.546119 2.16763 2.58771 41.1721 0 0 0 -2.60041 1.2201 3.74848 6 3 3 0 9 
3485 9 -0.413861 2.30675 2.04141 56.328 0 0 0 0 0 0 7 3 3 0 10 
86 2 0.862944 2.80631 2.43077 4.05989 0 0 0 -2.17668 -2.31607 0.587803 8 0 0 0 8 
23 1 -0.451364 2.49042 2.5991 6.3789 0 0 0 -0.225153 -0.313795 -5.65758 6 4 0 4 10 
2456 3 -0.485729 2.80096 2.3158 47.5156 0 0 0 0.0481505 -0.147166 1.73946 6 3 3 0 9 
2437 10 1.07191 2.81319 1.5826 50.598 0 0 0 0 0 0 7 0 0 0 7 
3049 9 -0.488187 2.67552 2.23409 52.6073 0 0 0 0 0 0 5 3 3 0 8 
1866 6 1.04078 3.23203 2.67604 -1.04386 0 0 0 0 0 0 7 0 0 0 7 
144 1 -0.421635 3.51378 2.51047 11.1647 0 0 0 3.05942 4.26156 0.382611 4 4 0 4 8 
130 2 0.823575 3.70959 2.68195 13.6624 0 0 0 -0.2848 0.0772821 -0.222883 6 0 0 0 6 
261 1 -0.450943 3.55189 2.72115 21.7452 0 0 0 2.77317 3.79444 1.73346 5 3 0 3 8 
372 1 -0.502503 3.35837 2.2336 27.2308 0 0 0 2.70687 3.55379 3.41026 3 3 0 3 6 
2358 3 -0.394033 3.29289 2.04863 36.0757 0 0 0 -2.10737 0.694644 1.73251 6 2 2 0 8 
3019 3 -0.389114 3.76034 1.95921 39.3281 0 0 0 10.2379 -2.39735 0.080097 6 2 2 0 8 
3066 10 0.927749 3.28341 2.79106 59.2624 0 0 0 0 0 0 5 0 0 0 5 
1825 5 -0.55321 4.33362 2.73308 -9.00847 0 0 0 0 0 0 4 3 3 0 7 
1862 5 -0.508787 4.17963 2.44494 -6.12297 0 0 0 0 0 0 7 4 4 0 11 
1908 5 -0.595642 4.43932 2.71865 -2.80175 0 0 0 0 0 0 6 4 4 0 10 
444 2 0.829962 4.42835 1.75252 25.6333 0 0 0 1.85377 0.804434 1.09628 6 0 0 0 6 
381 1 -0.526777 4.01277 2.28621 30.8976 0 0 0 3.42546 1.10787 -4.68802 6 4 2 2 10 
2450 4 1.07786 4.68105 1.62502 47.2698 0 0 0 0.327471 -1.43398 -1.06497 7 0 0 0 7 
2470 9 -0.466517 4.174 2.63235 54.6428 0 0 0 0 0 0 7 4 4 0 11 
2487 9 -0.548632 4.49305 2.47126 57.6906 0 0 0 0 0 0 7 4 4 0 11 
1930 5 -0.5296 4.98062 2.52879 -0.0780096 0 0 0 0 0 0 3 3 2 1 6 
3 1 -0.3089 5.15659 2.01908 2.91216 0 0 0 1.52047 1.26124 2.53016 7 4 0 4 11 
168 2 0.833445 5.32706 2.64254 10.2307 0 0 0 1.19721 -0.998924 0.755665 6 0 0 0 6 
2347 4 1.05453 5.00832 2.35404 32.8634 0 0 0 1.72561 -1.23593 0.188109 7 0 0 0 7 
3408 3 -0.333085 5.32076 2.88739 37.1562 0 0 0 -4.15807 5.36883 1.42971 6 2 2 0 8 
3435 3 -0.35638 4.96211 3.06653 41.7014 0 0 0 -0.85392 -1.10558 3.41238 7 2 2 0 9 
2435 9 -0.421371 4.96327 2.5233 51.5967 0 0 0 0 0 0 6 3 3 0 9 
1829 6 0.903304 6.05792 2.14666 -9.73417 0 0 0 0 0 0 4 0 0 0 4 
75 2 0.812811 5.67577 2.44178 6.90442 0 0 0 -0.625408 1.44062 -0.0649315 6 0 0 0 6 
231 1 -0.543111 5.6626 1.9017 20.3159 0 0 0 -0.314518 -5.44978 15.6417 4 5 0 5 9 
375 1 -0.425299 6.21918 2.18912 26.6451 0 0 0 4.09095 -3.26908 -0.264811 2 3 0 3 5 
3021 3 -0.207506 5.62846 2.70317 44.2323 0 0 0 -3.43108 1.83106 -0.777561 8 1 1 0 9 
2438 3 -0.447599 5.93747 2.6882 48.9794 0 0 0 -2.30135 0.729304 2.47844 7 3 3 0 10 
1827 5 -0.295357 6.77201 2.29204 -7.39996 0 0 0 0 0 0 6 2 2 0 8 
1900 5 -0.468058 6.55336 1.73587 -4.69122 0 0 0 0 0 0 4 3 3 0 7 
1925 6 1.10606 6.8785 2.16341 -0.167641 0 0 0 0 0 0 7 0 0 0 7 
134 1 -0.507572 6.71957 1.99768 8.57129 0 0 0 -4.07002 2.44535 1.59133 6 4 0 4 10 
98 1 -0.446433 6.8502 1.7013 5.01645 0 0 0 -4.05679 6.28166 4.16064 5 4 0 4 9 
162 2 0.848833 6.82526 2.2001 14.5697 0 0 0 0.613864 0.880304 -1.67877 6 0 0 0 6 
276 2 0.771977 6.29025 1.80146 17.7351 0 0 0 0.156378 -1.12597 1.39204 7 0 0 0 7 
3015 3 -0.324095 6.46946 2.9424 34.0251 0 0 0 -3.38716 5.60613 3.99527 5 2 2 0 7 
2375 3 -0.433766 6.61396 2.07972 40.1426 0 0 0 2.39665 0.626473 -1.35573 6 3 3 0 9 
3439 4 1.05801 6.89252 2.20908 38.1217 0 0 0 -1.91063 0.733961 1.09748 6 0 0 0 6 
3490 9 -0.362577 6.69637 1.95896 58.6362 0 0 0 0 0 0 5 3 3 0 8 
3491 9 -0.391246 6.76971 1.82633 55.8945 0 0 0 0 0 0 6 2 2 0 8 
1891 5 -0.430693 7.11229 2.80089 -2.1256 0 0 0 0 0 0 5 3 3 0 8 
70 1 -0.4543 7.23324 1.92802 1.62122 0 0 0 -0.746063 -0.957206 -2.83643 6 3 1 2 9 
188 1 -0.516556 7.23095 2.33102 11.2031 0 0 0 -3.62832 1.72234 -8.00871 5 3 0 3 8 
299 1 -0.510274 7.49059 2.79853 16.3711 0 0 0 10.4283 -1.27084 -1.39805 5 4 0 4 9 
270 1 -0.578 7.3029 3.04011 22.0874 0 0 0 -4.80911 4.6993 -2.36687 4 4 0 4 8 
294 2 0.769425 7.80531 2.1063 20.25 0 0 0 0.564528 0.338684 -1.07559 6 0 0 0 6 
2400 3 -0.3604 7.78905 2.9151 45.5628 0 0 0 -2.74843 -3.68971 8.10601 7 2 2 0 9 
2439 9 -0.250503 7.21104 2.41043 53.3751 0 0 0 0 0 0 4 4 0 4 8 
51 1 -0.404446 8.4887 2.8122 6.6036 0 0 0 -0.147227 -0.131244 2.86119 5 3 0 3 8 
304 1 -0.443469 8.06998 2.48959 24.538 0 0 0 -3.45201 2.05142 -1.35845 3 4 0 4 7 
2442 9 -0.323226 8.39168 1.63456 50.1752 0 0 0 0 0 0 7 2 2 0 9 
1924 5 -0.376136 9.05481 2.2919 -5.44265 0 0 0 0 0 0 6 2 2 0 8 
120 2 0.822301 8.78469 2.54243 8.73705 0 0 0 -0.422754 0.744287 1.25015 6 0 0 0 6 
59 1 -0.466299 9.12088 1.9416 3.21474 0 0 0 0.144647 -1.85676 -3.02491 5 3 0 3 8 
370 1 -0.334674 9.35894 1.66632 31.898 0 0 0 0.218537 1.45367 0.643304 5 2 2 0 7 
3413 3 -0.351822 9.03183 2.66427 35.1894 0 0 0 1.35717 -10.0891 -4.49121 5 2 2 0 7 
3027 3 -0.423425 9.19497 2.87208 40.9174 0 0 0 2.36497 -6.07169 -1.65361 6 3 3 0 9 
3095 3 -0.357405 8.74543 1.68406 38.7125 0 0 0 3.49629 -2.31755 1.57949 6 2 2 0 8 
1824 5 -0.296529 9.42046 2.75511 -8.03584 0 0 0 0 0 0 6 2 2 0 8 
1890 6 1.08101 10.0861 2.06466 -0.862733 0 0 0 0 0 0 8 0 0 0 8 
183 1 -0.480219 9.80884 1.7027 14.7703 0 0 0 -0.264714 0.382274 -5.90843 6 3 0 3 9 
141 1 -0.520019 9.71317 2.8393 11.6767 0 0 0 2.3825 3.60782 -5.47285 6 4 0 4 10 
2394 3 -0.483129 10.0639 2.25483 43.2049 0 0 0 -7.76016 0.6424 -1.86587 7 3 3 0 10 
2433 9 -0.296437 9.77918 2.68682 52.7769 0 0 0 0 0 0 5 2 2 0 7 
3079 9 -0.421927 9.51589 2.74498 58.7605 0 0 0 0 0 0 5 2 2 0 7 
3503 9 -0.413218 9.43037 2.24772 55.6059 0 0 0 0 0 0 6 3 3 0 9 
102 1 -0.477217 10.8223 2.7691 8.05757 0 0 0 -3.02186 0.766481 8.685 5 4 0 4 9 
65 2 0.846729 10.8548 1.57831 4.35371 0 0 0 0.282034 1.00587 -0.93338 6 0 0 0 6 
217 1 -0.552258 10.3308 2.68268 17.148 0 0 0 -3.79398 3.49499 3.7849 3 4 0 4 7 
252 1 -0.543733 10.4903 2.14931 24.2312 0 0 0 3.28777 -2.49977 -1.90929 4 4 0 4 8 
391 2 0.817817 10.8961 2.07915 29.5351 0 0 0 -0.267464 -1.52195 -0.314081 6 0 0 0 6 
3026 3 -0.294662 10.3022 1.8244 45.7108 0 0 0 -4.5225 7.3261 4.0463 6 2 2 0 8 
3074 10 1.0989 10.5001 1.82277 57.3661 0 0 0 0 0 0 7 0 0 0 7 
1806 6 1.0128 11.1571 1.80164 -8.41236 0 0 0 0 0 0 6 0 0 0 6 
1880 5 -0.440908 11.5986 2.41289 -6.64372 0 0 0 0 0 0 7 3 3 0 10 
1222 1 -0.510356 11.4924 1.97085 19.5071 0 0 0 6.78123 2.35401 -0.38072 5 3 0 3 8 
416 1 -0.470729 11.3136 1.97077 27.5096 0 0 0 4.76439 0.773139 0.223587 4 4 0 4 8 
1264 1 -0.484414 11.6046 2.70643 31.42 0 0 0 1.9075 -4.60494 -2.11381 7 3 2 1 10 
3020 3 -0.401582 11.353 2.82543 39.6684 0 0 0 4.01215 4.28683 -1.62914 6 3 3 0 9 
2413 10 1.0759 11.3401 1.5741 52.1335 0 0 0 0 0 0 7 0 0 0 7 
3038 3 -0.319275 11.1504 2.91985 48.0309 0 0 0 4.80545 3.5502 -1.70245 6 2 2 0 8 
1845 5 -0.357968 12.329 2.82585 -1.91622 0 0 0 0 0 0 6 2 2 0 8 
1011 1 -0.50415 12.2231 2.39962 5.72153 0 0 0 3.27463 3.71055 3.53216 5 4 0 4 9 
931 1 -0.426322 11.7651 2.7118 2.97243 0 0 0 -3.5174 -8.81029 -3.68639 5 3 0 3 8 
212 1 -0.564062 11.9264 1.9623 13.1685 0 0 0 1.45245 10.3511 -0.881468 2 4 0 4 6 
3016 3 -0.351009 12.5234 3.00464 35.9092 0 0 0 5.06019 4.52106 -1.65306 7 2 2 0 9 
2384 3 -0.309946 12.3724 3.05592 43.2784 0 0 0 -4.59007 4.15377 -2.93861 7 2 2 0 9 
3071 9 -0.42942 11.8229 2.5958 54.3991 0 0 0 0 0 0 8 3 3 0 11 
1932 5 -0.406853 0.203692 4.43928 -4.49393 0 0 0 0 0 0 9 3 3 0 12 
1934 5 -0.394202 0.0220657 4.61709 -0.00290409 0 0 0 0 0 0 6 3 2 1 9 
944 2 0.854602 0.0551928 4.43963 2.5462 1 0 0 -1.60957 -0.0900793 -0.947824 7 0 0 0 7 
190 1 -0.508572 0.565661 3.78312 12.3266 0 0 0 3.89649 8.14697 -1.87923 6 4 0 4 10 
198 2 0.847733 0.52781 3.13865 14.4397 0 0 0 1.27323 0.759678 0.940334 7 0 0 0 7 
390 1 -0.475034 0.322483 3.87831 28.2391 0 0 0 -2.37294 -1.63467 3.50149 6 4 0 4 10 
3451 4 1.10425 0.470825 3.35364 40.3293 1 0 0 -0.218329 -2.83368 -0.823119 6 0 0 0 6 
3005 3 -0.426546 0.750513 3.30745 36.0206 0 0 0 -4.21893 -2.81086 8.08151 3 2 2 0 5 
2376 3 -0.323229 0.593962 3.17306 46.0592 0 0 0 -2.06372 -1.02592 -1.14745 8 2 2 0 10 
2397 3 -0.345236 0.451847 4.33487 42.1074 0 0 0 5.28024 2.37689 -0.969374 6 2 2 0 8 
3506 9 -0.322925 0.459843 3.16613 53.5724 0 0 0 0 0 0 6 2 2 0 8 
3505 9 -0.480572 0.588881 4.05957 56.1078 0 0 0 0 0 0 0 0 0 0 0 
28 1 -0.48252 1.08531 3.47217 4.1503 0 0 0 -1.4619 -6.29675 -2.17173 7 4 0 4 11 
208 1 -0.507908 1.42337 3.8748 9.90674 0 0 0 0.0755284 2.60603 3.08585 6 4 0 4 10 
343 2 0.804192 1.49215 4.4293 22.4911 0 0 0 -2.02741 -0.187795 2.0083 6 0 0 0 6 
1911 5 -0.480497 2.32441 4.45304 -6.31594 0 0 0 0 0 0 6 3 3 0 9 
1902 5 -0.525527 2.16969 3.94486 -2.58039 0 0 0 0 0 0 7 4 4 0 11 
426 1 -0.365655 2.05731 3.85187 32.2827 0 0 0 -1.22937 1.50103 3.84501 4 2 2 0 6 
55 1 -0.322454 2.76117 3.95953 0.373045 0 0 0 -0.301664 -1.30734 -0.164073 6 2 1 1 8 
258 1 -0.559441 2.64622 3.8851 19.4285 0 0 0 0.16496 2.13355 -2.24328 2 4 0 4 6 
268 2 0.821292 3.10935 3.25284 17.2567 0 0 0 -0.955344 0.176815 -1.01548 7 0 0 0 7 
423 2 0.829596 2.6603 4.05719 27.3396 0 0 0 -1.11666 0.416559 0.287373 6 0 0 0 6 
312 1 -0.426914 2.43474 3.13005 24.0397 0 0 0 -1.19291 -6.19083 5.17445 3 4 0 4 7 
361 1 -0.459128 2.50972 4.11666 29.4506 0 0 0 0.249654 0.880986 -7.96167 4 3 0 3 7 
2336 3 -0.266273 2.93462 4.05231 37.8637 0 0 0 -4.22886 -4.50883 1.01287 7 2 2 0 9 
2399 4 1.05539 2.47916 3.27134 45.2018 0 0 0 -0.214067 -0.391163 0.660099 7 0 0 0 7 
3082 9 -0.478768 2.60802 4.55348 54.3348 0 0 0 0 0 0 6 3 3 0 9 
3493 9 -0.54476 2.49021 4.10581 57.8748 0 0 0 0 0 0 7 4 4 0 11 
1828 6 1.10021 3.58572 3.80407 -7.64893 0 0 0 0 0 0 6 0 0 0 6 
1867 6 1.04112 3.30649 3.60981 -4.52639 0 0 0 0 0 0 7 0 0 0 7 
42 1 -0.40862 3.55521 3.93787 3.13198 0 0 0 0.785517 -5.2081 3.86778 5 3 0 3 8 
121 1 -0.392326 3.78157 4.03317 8.7293 0 0 0 -0.365715 3.34073 0.0692043 5 4 0 4 9 
187 1 -0.497237 3.77592 3.56005 15.4461 0 0 0 -1.27377 -3.74506 1.37883 3 3 0 3 6 
2403 4 1.09803 3.71648 3.72021 40.3956 0 0 0 1.01271 -1.2629 0.673458 7 0 0 0 7 
3433 3 -0.38938 3.32778 3.99973 43.5162 0 0 0 -1.29173 -0.42596 -1.77393 7 2 2 0 9 
2416 3 -0.221343 3.38293 3.43682 49.7812 0 0 0 -6.11092 -1.3652 -0.768743 7 1 1 0 8 
2440 10 1.06369 3.80552 3.93348 52.6778 0 0 0 0 0 0 7 0 0 0 7 
2473 10 1.09156 3.46069 3.80763 56.0732 0 0 0 0 0 0 7 0 0 0 7 
85 2 0.800686 4.68704 4.03074 1.37691 0 0 0 -0.231278 0.707222 -0.110937 6 0 0 0 6 
13 1 -0.465876 4.64586 3.58816 5.60147 0 0 0 -2.55048 -0.346843 0.591832 4 4 0 4 8 
322 2 0.795184 4.48666 3.76323 20.3894 0 0 0 1.01408 -0.399009 0.124007 6 0 0 0 6 
360 1 -0.541356 3.95767 3.59939 34.1465 0 0 0 5.38919 -1.39857 -1.16063 8 3 3 0 11 
3008 4 1.08083 3.98994 4.04266 36.0015 0 0 0 -1.39335 0.128702 -0.507951 7 0 0 0 7 
3486 9 -0.466423 4.43574 4.40931 59.504 0 0 0 0 0 0 7 3 3 0 10 
1840 5 -0.524878 5.22902 4.62207 -7.10542 0 0 0 0 0 0 5 3 3 0 8 
1906 5 -0.50878 5.17548 4.27486 -4.56039 0 0 0 0 0 0 5 3 3 0 8 
324 1 -0.475518 5.14417 3.46258 18.1199 0 0 0 -3.83018 -0.861113 -10.34 3 4 0 4 7 
241 1 -0.507782 5.33453 3.15038 23.9835 0 0 0 -7.99355 3.26177 2.25912 3 5 0 5 8 
358 1 -0.385137 5.09303 3.38738 28.7263 0 0 0 -0.882946 -2.31461 -5.3841 6 2 0 2 8 
392 1 -0.518652 5.2832 4.2919 32.0171 0 0 0 -6.5054 2.60931 -9.17712 6 4 3 1 10 
3429 3 -0.418543 5.35189 4.24643 39.3153 0 0 0 7.22035 2.30982 -3.96293 7 2 2 0 9 
3432 3 -0.260773 5.05024 3.38237 46.6664 0 0 0 -4.16397 2.5586 8.14501 6 3 0 3 9 
1865 6 1.03466 5.81927 4.37967 -2.46894 0 0 0 0 0 0 7 0 0 0 7 
116 1 -0.452821 5.50879 3.32947 13.0745 0 0 0 0.907938 1.57282 -2.79986 3 3 0 3 6 
199 1 -0.47372 5.92303 4.60654 10.4139 0 0 0 -0.182729 -0.232712 -5.68237 5 4 0 4 9 
2457 9 -0.48886 5.5784 4.56866 53.4268 0 0 0 0 0 0 4 3 3 0 7 
3497 9 -0.502671 5.50836 4.19966 56.1782 0 0 0 0 0 0 8 3 3 0 11 
2472 10 1.02951 6.06197 3.91353 58.1782 0 0 0 0 0 0 7 0 0 0 7 
1805 5 -0.355318 6.62767 4.00303 -9.45241 0 0 0 0 0 0 4 2 2 0 6 
1877 6 1.07316 6.45654 3.53175 -5.79929 0 0 0 0 0 0 7 0 0 0 7 
77 1 -0.453929 6.38516 4.44055 2.33339 0 0 0 -3.1552 5.43814 -6.52004 5 3 0 3 8 
108 1 -0.418632 6.40721 4.33617 7.66276 0 0 0 3.67346 -2.34138 0.505641 3 3 0 3 6 
2 1 -0.530373 7.01946 4.4558 4.78362 0 0 0 -7.93976 2.33934 2.24739 5 3 0 3 8 
344 2 0.841776 6.8482 3.81659 25.4804 0 0 0 0.205708 -1.96379 1.85725 7 0 0 0 7 
3040 4 1.02844 6.77066 4.48629 48.6794 0 0 0 0.199989 -0.117594 -2.20998 7 0 0 0 7 
3042 9 -0.36404 7.03874 3.7892 50.9563 0 0 0 0 0 0 6 3 3 0 9 
3488 10 1.1224 6.66434 3.52793 54.7876 0 0 0 0 0 0 4 5 0 5 9 
1914 5 -0.378169 7.77398 4.30295 -4.1304 0 0 0 0 0 0 6 3 3 0 9 
44 2 0.865979 7.63655 3.1452 3.42016 0 0 0 -2.13068 0.220357 -0.305635 8 0 0 0 8 
388 1 -0.426037 7.19285 3.32112 30.43 0 0 0 -0.00108258 8.12859 -1.37836 4 2 1 1 6 
354 2 0.828115 7.82199 4.53681 28.8704 0 0 0 0.506008 -0.287902 -0.683494 7 0 0 0 7 
2348 3 -0.450795 7.82115 4.50896 39.7791 0 0 0 4.82717 -0.512129 -0.25458 8 3 3 0 11 
2407 4 1.13567 7.18816 3.21426 41.5898 0 0 0 0.324276 0.622886 -0.260384 7 0 0 0 7 
3067 9 -0.372814 7.23269 4.25777 59.8324 0 0 0 0 0 0 3 2 2 0 5 
1935 5 -0.464336 7.96463 4.65603 -6.81074 0 0 0 0 0 0 6 3 3 0 9 
123 1 -0.491671 8.14875 3.53229 13.806 0 0 0 -2.98116 2.41758 -0.0310021 5 4 0 4 9 
143 2 0.84137 8.02957 4.18071 11.4163 0 0 0 2.27755 1.85454 0.46393 7 0 0 0 7 
2356 3 -0.410314 8.47293 4.05482 32.8219 0 0 0 -8.38641 -4.23124 1.27945 4 2 2 0 6 
3422 3 -0.310896 7.92338 3.88762 37.4538 0 0 0 -3.38455 -4.07671 1.29754 4 2 2 0 6 
3028 3 -0.418446 8.08432 4.0096 43.1576 0 0 0 -0.586811 7.37639 2.90666 7 2 2 0 9 
2429 3 -0.190404 8.32129 3.3822 48.1707 0 0 0 -1.69097 -8.87663 2.28824 7 1 1 0 8 
3089 9 -0.452424 8.34874 4.51124 54.4934 0 0 0 0 0 0 6 3 3 0 9 
3499 9 -0.500489 7.95354 4.15499 57.1602 0 0 0 0 0 0 5 4 4 0 9 
61 1 -0.498308 8.70907 3.18148 0.0484067 0 0 0 8.70697 -2.09768 -0.120516 7 3 3 0 10 
129 1 -0.489237 8.73068 4.40134 9.58887 0 0 0 -1.5925 1.41166 2.5869 3 3 0 3 6 
277 2 0.788427 8.84509 3.96447 17.4619 0 0 0 -0.0294892 3.42808 0.435758 6 0 0 0 6 
325 1 -0.549531 8.99359 3.60246 19.608 0 0 0 6.24708 -4.17586 -0.351644 2 4 0 4 6 
369 1 -0.459933 8.77748 3.16808 27.2299 0 0 0 2.47993 -0.970187 0.64951 2 4 0 4 6 
2369 4 1.08009 9.40579 3.51663 38.8867 0 0 0 0.566708 1.67942 0.840592 7 0 0 0 7 
2366 4 1.06683 9.29657 3.63363 44.577 0 0 0 1.10602 -0.81918 0.254299 6 0 0 0 6 
3500 10 1.01841 8.98239 4.43527 59.0934 0 0 0 0 0 0 5 0 0 0 5 
1848 6 1.07337 9.83582 4.06852 -6.09277 0 0 0 0 0 0 7 0 0 0 7 
1897 5 -0.440412 9.79139 3.66586 -2.06163 0 0 0 0 0 0 6 3 3 0 9 
89 1 -0.414572 9.76777 3.92513 4.64296 0 0 0 -1.76601 -1.2318 -2.73526 4 5 0 5 9 
319 2 0.767065 9.50576 3.20534 22.6036 0 0 0 1.20923 -1.02936 0.593544 7 0 0 0 7 
347 2 0.823146 10.1688 3.60938 25.659 0 0 0 0.411563 -0.00319816 1.61584 8 0 0 0 8 
3007 4 1.0703 10.0736 4.02619 31.9023 0 0 0 0.684436 -0.602485 -0.337261 7 0 0 0 7 
400 1 -0.53405 9.82071 3.85054 29.7171 0 0 0 -0.670322 3.65017 -4.49157 6 4 1 3 10 
3050 9 -0.24993 9.87721 3.91698 50.2651 0 0 0 0 0 0 7 1 1 0 8 
3061 10 1.08321 10.1617 3.85119 54.5896 0 0 0 0 0 0 7 0 0 0 7 
150 2 0.816735 10.2076 3.16709 13.5402 0 0 0 0.44961 2.07038 -1.38762 5 0 0 0 5 
3453 4 1.13849 10.7013 3.8821 35.4418 0 0 0 -0.380965 -1.87962 0.805915 6 0 0 0 6 
3409 3 -0.380589 10.4567 3.1787 37.2629 0 0 0 1.18598 -0.0377786 -2.34792 7 2 2 0 9 
1892 5 -0.494083 11.0176 3.80352 -4.48238 0 0 0 0 0 0 6 3 3 0 9 
91 1 -0.220258 11.0949 3.63492 0.739691 0 0 0 -2.11363 -3.63962 -3.3467 6 2 1 1 8 
963 2 0.846419 11.1232 4.05282 6.22911 0 0 0 -0.109788 -0.241634 1.27812 6 0 0 0 6 
14 2 0.867636 11.0135 4.59554 2.92127 0 0 0 0.767107 -0.544676 0.0873545 7 0 0 0 7 
247 2 0.800655 11.1735 4.0171 19.9803 0 0 0 -0.157444 -0.651861 1.99708 6 0 0 0 6 
257 2 0.775676 11.6782 3.94385 16.3778 0 0 0 0.468974 -2.36913 -0.407636 6 0 0 0 6 
3017 3 -0.506021 11.4005 3.95594 33.628 0 0 0 2.08439 -2.14196 -1.11036 4 3 3 0 7 
2738 4 1.03111 11.0549 3.45 41.6931 0 0 0 -0.131168 -0.9431 1.29101 7 0 0 0 7 
2453 4 1.06027 11.6022 4.02594 49.5932 0 0 0 0.0805191 0.258439 0.495321 7 0 0 0 7 
3075 9 -0.573109 11.1858 3.69368 56.811 0 0 0 0 0 0 6 4 4 0 10 
1815 5 -0.470406 12.1889 3.29775 -9.02342 0 0 0 0 0 0 5 3 3 0 8 
1108 2 0.840292 12.2529 4.0791 9.30697 0 0 0 0.810796 1.83459 -0.570216 6 0 0 0 6 
122 1 -0.502447 12.0572 3.71667 11.2439 0 0 0 3.43378 -1.32649 -3.13592 5 4 0 4 9 
1186 1 -0.497408 12.5089 4.12469 18.364 0 0 0 -1.49775 -5.35119 -0.902692 5 4 0 4 9 
233 1 -0.481123 11.7945 3.23004 21.8522 0 0 0 -5.71894 5.71787 -0.0273777 1 4 0 4 5 
2708 3 -0.245824 12.4851 3.39466 45.9117 0 0 0 -2.91027 -6.15436 -0.435602 7 1 1 0 8 
2420 9 -0.561302 12.0813 3.32687 51.6983 0 0 0 0 0 0 7 3 3 0 10 
1852 6 1.11872 0.480366 5.30889 -6.31282 0 0 0 0 0 0 7 0 0 0 7 
1858 5 -0.435909 0.5374 5.92033 -2.20477 0 0 0 0 0 0 6 3 3 0 9 
72 2 0.833981 0.568773 4.88992 5.45741 0 0 0 1.17227 -1.16827 -0.469688 7 0 0 0 7 
404 1 -0.486978 0.0555885 5.70933 31.3457 0 0 0 -3.78974 -1.65393 -1.01306 5 3 2 1 8 
3055 9 -0.274858 0.166888 5.15243 50.2001 0 0 0 0 0 0 8 2 2 0 10 
40 1 -0.367599 1.5592 5.55317 2.2698 0 0 0 -9.97853 4.73877 -1.06637 3 2 0 2 5 
133 1 -0.534043 1.48019 5.02875 7.52542 0 0 0 1.37234 -2.22561 3.75022 5 4 0 4 9 
221 2 0.807506 1.22195 5.76995 12.8418 0 0 0 -1.02033 1.31915 1.3799 7 0 0 0 7 
308 1 -0.494847 1.38411 5.19325 17.3673 0 0 0 -0.56861 -4.09006 -11.8882 6 4 0 4 10 
339 1 -0.456058 1.41097 4.76973 26.1258 0 0 0 1.01021 1.45765 3.07349 4 3 0 3 7 
436 2 0.80848 0.874002 5.35113 29.4266 0 0 0 0.51935 0.874029 -1.69882 6 0 0 0 6 
2341 3 -0.371942 0.913493 5.64177 37.3095 0 0 0 -1.68637 1.51875 1.20301 6 2 2 0 8 
2389 3 -0.485238 1.2521 5.34742 44.4528 0 0 0 -0.80959 1.0524 -3.7542 8 4 4 0 12 
3483 9 -0.327411 1.15636 6.16434 58.7066 0 0 0 0 0 0 4 2 2 0 6 
2465 10 1.12824 0.805534 5.3623 54.3016 0 0 0 0 0 0 4 2 2 0 6 
155 1 -0.483347 1.62873 4.88998 14.6035 0 0 0 -5.53797 -2.30773 -5.49815 6 3 0 3 9 
259 1 -0.452442 1.85438 6.00992 21.214 0 0 0 -6.18868 2.62851 -1.09522 5 3 0 3 8 
238 2 0.828974 1.6679 5.83 19.2343 0 0 0 0.171035 2.37858 -1.24308 6 0 0 0 6 
283 1 -0.549257 2.32718 5.822 23.7742 0 0 0 -4.72792 8.62949 -4.72294 5 4 0 4 9 
349 1 -0.450938 2.10184 5.22525 34.772 0 0 0 0.676631 1.86913 1.68488 3 3 3 0 6 
3392 3 -0.31871 1.85161 4.83541 39.9854 0 0 0 4.04957 3.75057 -2.60504 6 3 3 0 9 
2401 4 1.04962 2.12142 5.3453 42.6943 0 0 0 1.38222 0.932353 -0.515393 7 0 0 0 7 