ITEM: TIMESTEP
1160000
ITEM: NUMBER OF ATOMS
3344
ITEM: BOX BOUNDS pp pp ff
0.0000000000000000e+00 2.9570792915437071e+01
0.0000000000000000e+00 2.9553627604839157e+01
-8.8921683279491504e+00 4.4289169250706017e+01
ITEM: ATOMS id type q x y z ix iy iz vx vy vz c_eng 
1802 6 0.969978 1.72391 2.50068 -5.82381 0 0 0 0 0 0 -11.9715 
1748 5 -0.552943 2.14231 1.01995 -7.10683 0 0 0 0 0 0 -5.46658 
2036 6 0.847894 0.0809508 0.962734 -7.73073 0 0 0 0 0 0 -10.0777 
1735 5 -0.638276 0.00588201 2.79051 -7.00765 0 0 0 0 0 0 -5.73527 
1835 5 -0.588837 1.86168 1.03909 -4.37975 0 0 0 0 0 0 -5.22893 
1553 6 1.04606 0.84304 0.869153 -2.65107 0 0 0 0 0 0 -12.4771 
1851 5 -0.549645 2.86962 2.15003 -2.36357 0 0 0 0 0 0 -4.98292 
1662 5 -0.691746 1.36468 0.727186 -0.805768 0 0 0 0 0 0 -5.24394 
1877 5 -0.498338 1.02721 3.48157 -1.02956 0 0 0 0 0 0 -5.76417 
1879 6 0.933804 2.73473 2.50446 -0.383048 0 0 0 0 0 0 -12.0832 
111 1 -0.664707 0.533293 2.36964 2.40886 1 0 0 -0.87072 -3.68296 -8.47294 -6.26041 
565 2 0.63067 0.225463 1.12168 0.746928 1 0 0 1.29359 -1.62344 1.60179 -10.6455 
507 2 0.681298 2.42015 2.22522 2.79086 0 0 0 0.191577 0.702991 -1.16499 -10.9304 
248 1 -0.627815 3.07775 0.501475 4.15183 0 0 0 0.188231 -4.68429 -7.49031 -6.29469 
122 1 -0.575808 1.56549 3.26086 5.47483 0 0 0 6.94266 -0.391986 -0.902032 -6.25333 
430 1 -0.545522 1.57566 1.31151 9.96192 0 0 0 3.75055 1.59167 -6.55244 -6.86744 
367 2 0.69871 1.51546 3.19482 7.64594 0 0 0 0.187254 -0.0809974 -2.1475 -10.4851 
484 1 -0.619464 0.700093 1.31799 7.27733 1 0 0 -1.46905 -1.14423 -0.732356 -6.09539 
567 2 0.719665 1.8841 1.14191 5.65689 0 0 0 1.88376 -2.91652 -0.939798 -10.9961 
1422 4 0.989476 3.42181 3.17849 10.6388 0 0 0 0.868588 -1.83915 -1.33336 -10.6507 
928 4 0.929527 3.64796 0.0482717 10.4533 0 0 0 -1.90321 -2.02108 -0.520469 -10.6947 
88 1 -0.651686 0.274112 0.0695212 4.76964 0 1 0 3.69122 2.88165 1.26529 -6.30761 
1098 4 0.936401 1.23646 1.33348 12.3914 0 0 0 -0.508171 1.62687 -0.185494 -9.9759 
1143 3 -0.613285 2.35898 3.35232 15.6492 0 0 0 4.79315 0.438661 3.55637 -7.61812 
1117 4 0.964484 3.55614 3.5024 13.7484 0 0 0 -2.5897 -0.898489 -2.0259 -10.0717 
1121 3 -0.503883 1.07151 0.662611 14.9197 0 0 0 -6.81009 -2.42717 -3.10316 -7.10481 
1271 3 -0.630826 2.23239 3.06912 12.1997 0 0 0 9.92948 -11.2324 1.16803 -7.16642 
1175 4 0.997701 2.78459 1.14128 15.7797 0 0 0 0.528012 -0.467841 -0.432456 -9.56097 
1339 3 -0.576512 2.95932 0.412203 12.3206 0 0 0 2.96564 -2.08895 3.8053 -6.91575 
840 3 -0.577624 0.103226 3.15601 13.8843 1 0 0 6.46323 2.86177 3.00414 -7.16522 
1173 3 -0.606849 1.28419 3.04449 20.4265 0 0 0 -2.91608 0.0260299 -1.83506 -7.68043 
2397 7 -0.589169 0.275874 0.571563 20.8639 1 0 0 1.60974 3.97292 -0.92224 -6.79085 
2296 7 -0.555343 1.09008 2.03424 22.9731 0 0 0 -2.01202 11.7854 0.432379 -6.94808 
2507 7 -0.626891 3.30772 0.961091 22.9239 0 0 0 6.21297 -0.381425 -0.0918659 -7.24351 
2398 8 1.04153 2.01453 1.26297 21.2817 0 1 0 -0.357857 3.12183 -1.57315 -9.60021 
2500 8 0.989682 0.585845 2.66278 18.5835 1 0 0 1.71609 0.94577 0.122102 -9.53459 
1147 3 -0.48969 2.3008 1.62478 17.7431 0 0 0 -4.2145 0.843826 3.33638 -7.12637 
3018 10 1.04533 1.21272 1.63835 27.5784 0 0 0 1.50439 -0.888012 2.75891 -9.73749 
3067 9 -0.677707 3.00762 1.46178 30.3488 0 0 0 0 0 0 -7.00962 
3041 9 -0.500396 1.48375 3.22476 28.6783 0 0 0 0 0 0 -6.54753 
3191 9 -0.613533 1.89067 3.28609 25.8172 0 0 0 1.70777 -2.57171 2.07579 -7.5201 
2951 9 -0.594972 0.488169 0.974496 25.8458 0 0 0 -6.68881 3.07196 -1.52247 -7.45641 
3143 9 -0.481212 0.43135 0.959036 29.5551 1 0 0 0 0 0 -6.5815 
3095 10 0.984148 1.62723 2.8994 30.8277 0 0 0 0 0 0 -9.8663 
2309 8 0.996375 2.07706 1.53765 24.5642 0 0 0 0.509214 -1.71147 -0.404117 -9.41142 
2814 9 -0.619202 3.55888 2.12669 27.5058 0 0 0 7.19254 0.0469971 7.31422 -7.51873 
3190 9 -0.49185 0.786498 1.77332 32.0981 1 0 0 0 0 0 -6.08779 
1684 6 0.74754 0.445128 4.47922 -7.87932 0 0 0 0 0 0 -9.56334 
1477 6 0.98029 3.45938 7.11923 -5.47067 0 0 0 0 0 0 -12.2092 
1857 5 -0.515859 2.03124 5.78674 -5.97954 0 0 0 0 0 0 -5.34798 
1590 6 1.07078 0.508442 5.42541 -4.74455 0 0 0 0 0 0 -12.1133 
1975 5 -0.439298 2.4354 3.78805 -7.65315 0 0 0 0 0 0 -5.02122 
1821 6 0.993238 3.36831 4.02893 -3.5146 0 0 0 0 0 0 -12.2696 
1825 5 -0.555679 1.50813 3.72172 -4.38085 0 0 0 0 0 0 -5.78345 
1909 5 -0.636807 0.0620899 7.24382 -4.24721 0 0 0 0 0 0 -5.46056 
1818 5 -0.471574 2.1536 5.84248 -2.82165 0 0 0 0 0 0 -5.65653 
339 1 -0.622885 2.58562 4.13733 1.40094 0 0 0 -3.47578 -0.0324102 2.6318 -5.73311 
1896 6 0.944068 3.05601 5.78863 -0.958883 0 0 0 0 0 0 -11.7189 
1641 5 -0.660725 1.11601 5.9966 -0.226154 0 0 0 0 0 0 -5.65748 
1664 6 0.992713 0.000929033 6.49587 -1.72773 0 0 0 0 0 0 -12.4195 
400 2 0.661467 3.08532 5.95668 2.16903 0 0 0 0.0257728 0.494637 -0.629205 -10.6479 
428 2 0.702846 0.59421 4.4007 0.841589 0 0 0 0.811762 -0.982653 1.54498 -11.4428 
579 1 -0.604976 1.08276 5.57284 3.50964 0 0 0 -3.78215 -2.73682 6.96853 -6.15206 
114 2 0.723565 0.22483 3.8275 4.01112 0 0 0 -0.857678 -1.27995 1.98084 -11.0814 
580 1 -0.634437 3.63771 6.66087 4.21975 0 0 0 14.267 8.19297 1.14482 -6.32107 
202 2 0.667099 0.475517 5.74859 6.53343 1 0 0 -0.507217 0.304981 -0.433715 -10.5808 
142 1 -0.672355 2.57802 5.47977 6.77636 0 0 0 -2.25601 3.72935 -2.20673 -6.57986 
980 4 0.887619 1.65416 5.61805 9.55519 0 0 0 1.43605 -1.08717 0.855185 -10.6016 
310 2 0.73438 3.39409 4.70728 4.98875 0 0 0 0.8609 -2.03449 -0.686858 -11.2358 
55 1 -0.691552 2.55956 4.00466 9.14051 0 0 0 0.556873 0.793515 3.37968 -6.75165 
2393 8 1.00464 0.588147 4.11203 15.7456 0 0 0 1.45428 -1.3756 -1.81199 -9.72928 
891 3 -0.542909 0.774154 6.32325 16.0947 0 0 0 -2.98313 8.27729 -4.87295 -7.04707 
37 1 -0.591892 1.54638 6.05548 11.4374 0 0 0 -0.0944496 -0.0204085 -4.27099 -6.55564 
1114 3 -0.527048 1.81725 5.32611 13.8996 0 0 0 -0.484919 2.98276 -0.889991 -6.79273 
1192 4 1.05839 2.77309 6.86479 14.7837 0 0 0 1.53609 0.129284 -0.631062 -9.87791 
762 3 -0.612127 3.36355 5.98638 16.4951 0 0 0 -1.8884 -5.04572 -4.71538 -7.29393 
886 4 1.0462 0.435261 4.50805 12.4205 0 0 0 2.65939 1.26882 0.881717 -10.1952 
2304 8 1.03941 0.504981 4.63253 21.5372 1 0 0 0.584459 0.292061 -0.942259 -9.20662 
2521 7 -0.536521 2.2433 5.6994 20.6275 0 0 0 -0.999702 -1.70622 -6.69329 -7.32133 
2202 7 -0.527668 1.77217 4.59229 23.0649 0 0 0 -3.35156 7.01552 -1.84634 -7.45808 
937 3 -0.618956 2.68736 4.18005 18.3569 0 0 0 1.39051 2.29297 -0.344085 -7.01093 
2551 8 0.972378 1.67526 5.94712 18.2821 0 0 0 0.569821 1.50808 -0.141404 -9.84738 
2618 8 1.00016 3.3864 4.11453 20.1634 0 0 0 0.723951 -1.80812 -1.83187 -9.59423 
2151 7 -0.635618 0.149596 4.52518 17.9087 1 0 0 -6.5814 -1.52298 1.86546 -7.45562 
1210 3 -0.606778 3.25933 7.38267 18.597 0 0 0 -3.21408 3.53942 -1.19139 -7.13988 
2900 10 1.00308 0.910994 4.64719 24.9273 0 0 0 0.0262218 -0.202116 -1.34197 -9.43338 
3034 9 -0.624982 2.77164 4.6154 30.302 0 0 0 0 0 0 -7.00895 
3146 10 0.984789 0.709458 7.24259 26.73 0 0 0 1.57697 -0.637268 1.90867 -9.53643 
3073 9 -0.504118 1.72547 5.49671 27.5156 0 0 0 2.59053 -0.258086 5.15729 -6.72436 
2693 10 0.99239 3.12359 6.32325 28.7466 0 0 0 -1.17203 -0.0836507 -0.468542 -9.87678 
3125 9 -0.599524 0.142166 6.06392 29.6391 0 0 0 0 0 0 -7.48873 
3184 9 -0.513175 1.05131 6.7779 24.6594 1 0 0 -2.52009 -1.62602 6.52861 -7.18828 
3344 9 -0.51335 3.42944 5.48869 25.5152 0 0 0 -4.45186 4.20623 -4.75398 -7.12944 
3093 9 -0.58241 0.67061 4.44338 31.9083 0 0 0 0 0 0 -6.6132 
3136 9 -0.596433 0.779854 7.26023 32.4875 0 0 0 0 0 0 -6.47433 
2857 9 -0.539561 3.60898 6.06126 32.4556 0 0 0 0 0 0 -6.34943 
2880 10 0.941133 1.54459 6.02828 31.2853 0 0 0 0 0 0 -9.79845 
1668 5 -0.476953 1.64011 10.6745 -7.73594 0 0 0 0 0 0 -4.6827 
1710 6 0.979498 3.38077 9.89137 -7.55904 0 0 0 0 0 0 -11.2706 
1995 5 -0.560544 1.79106 8.27641 -5.98123 0 0 0 0 0 0 -5.3961 
1930 6 0.872022 0.671651 7.74527 -7.51036 0 0 0 0 0 0 -10.9385 
1697 5 -0.557735 3.30913 10.3958 -5.66731 0 0 0 0 0 0 -5.20077 
1842 5 -0.400944 2.53422 8.15831 -8.52032 0 0 0 0 0 0 -4.39804 
2066 6 1.02529 1.28881 8.79142 -4.10193 0 0 0 0 0 0 -12.2786 
1595 5 -0.544911 3.06442 8.26755 -3.57222 0 0 0 0 0 0 -5.39436 
2025 5 -0.588942 1.63266 10.6265 -3.32851 0 0 0 0 0 0 -5.51503 
1628 5 -0.631896 3.03593 10.4073 -0.960219 0 0 0 0 0 0 -5.72692 
1920 5 -0.578351 0.902696 8.32626 -2.0179 0 0 0 0 0 0 -5.85705 
1504 6 0.939229 1.05015 10.0825 -1.02812 0 0 0 0 0 0 -11.9228 
380 2 0.672923 0.58327 7.84758 0.885523 0 0 0 -2.47426 -1.64934 0.176099 -11.0309 
423 1 -0.647013 0.836299 9.89441 0.997904 0 0 0 -0.42818 -2.14653 -0.248273 -5.92011 
137 2 0.660251 1.48333 7.45686 4.0088 0 0 0 -0.140661 -2.78097 1.22313 -10.4899 
663 1 -0.58786 2.53459 7.82718 1.28891 0 0 0 5.62671 0.269637 -5.41872 -6.09633 
530 2 0.71126 3.42444 9.7321 1.0985 0 0 0 -1.12872 1.80474 -0.67833 -11.5318 
345 1 -0.611088 2.02966 9.60728 3.81877 0 0 0 -0.11385 -0.22696 -2.29127 -6.34859 
213 2 0.662899 0.0886422 10.0907 2.89748 0 0 0 -0.475101 1.21708 -0.235667 -10.6517 
480 1 -0.65972 2.36536 7.55428 8.91877 0 0 0 -1.46392 4.84451 -4.89761 -6.96756 
1085 3 -0.622628 0.821699 9.82844 8.15711 0 0 0 -1.09962 -3.87872 0.774232 -6.79558 
100 1 -0.675513 0.965164 7.96212 5.89821 0 0 0 -1.72788 1.27353 -1.96015 -6.76323 
614 2 0.735069 1.2647 10.0516 6.03718 0 0 0 -0.79494 1.62494 -0.138155 -11.0924 
1006 4 0.905414 2.72501 9.81773 9.10129 0 0 0 0.33448 -2.4243 0.21811 -10.8263 
577 1 -0.628408 3.55647 9.32566 6.20214 0 0 0 2.29771 1.70051 0.231235 -6.51069 
581 2 0.655407 2.89853 7.51745 6.84457 0 0 0 0.771974 -0.623622 -0.821183 -10.5614 
1138 3 -0.633508 2.29287 9.66993 10.8972 0 0 0 -0.357069 0.845445 -0.872096 -6.70792 
1362 4 0.918093 0.00944698 8.04903 8.78628 0 0 0 1.42508 -0.885106 1.28026 -10.8799 
474 1 -0.614439 3.03746 7.88442 13.1761 0 0 0 6.79076 -5.18727 4.15048 -6.99236 
993 3 -0.59443 2.22305 8.45124 15.7204 0 0 0 3.77915 -1.77832 -4.75184 -7.06525 
1115 3 -0.596439 0.692217 10.0823 17.0017 1 0 0 -1.27683 7.03817 3.15224 -6.98382 
800 4 1.00351 0.873324 9.70911 14.6897 0 0 0 -0.0572639 0.433032 -0.547869 -10.0104 
1334 3 -0.633957 1.3885 10.761 13.0411 1 0 0 -12.5521 -1.54097 -1.99127 -6.96654 
922 4 0.977593 1.79467 7.89719 11.7109 0 0 0 0.546522 -1.63335 -0.751161 -10.3755 
1291 3 -0.605565 0.245728 8.26663 13.3514 0 0 0 -0.784058 4.8814 -2.51006 -7.33888 
1321 3 -0.387418 2.98406 10.8651 15.4448 0 0 0 -0.00143607 2.70037 0.612067 -6.51224 
780 4 1.0166 3.21241 11.0011 12.4393 0 0 0 -0.148086 -0.320474 0.128301 -10.3824 
2178 8 1.01856 2.25651 9.00939 17.6532 0 0 0 -2.09951 1.78576 0.645742 -9.94078 
1024 4 0.936233 0.0300571 10.4455 11.4714 1 0 0 1.44014 -0.0826618 0.91203 -10.4211 
2549 8 1.02337 2.67706 8.41152 22.9927 0 0 0 -1.24834 1.51797 -1.48708 -9.13815 
1216 3 -0.659159 0.751391 7.78885 18.3185 0 0 0 -2.59927 0.572835 3.2 -7.48283 
2205 7 -0.584305 2.76072 8.73445 20.7811 0 0 0 2.78132 -0.258333 5.04801 -7.1694 
2177 7 -0.52938 0.843233 7.68471 22.1783 1 0 0 -2.14904 0.704952 -0.381537 -6.90258 
2443 7 -0.435311 1.36368 9.86169 23.2074 1 0 0 0.0803546 1.31425 3.86772 -6.32826 
2270 7 -0.577636 0.469996 9.91854 19.768 1 0 0 0.806847 -1.13271 -1.84663 -6.89606 
2417 8 1.02073 0.272953 7.98641 20.3009 0 0 0 -2.36729 1.05354 -0.405377 -9.4588 
2256 8 0.988979 2.16126 10.6327 20.5682 0 0 0 -1.32185 -1.15267 2.05295 -9.50195 
2306 7 -0.560604 3.3671 10.8422 22.2476 0 0 0 5.52426 -4.40953 -1.3109 -7.16312 
924 3 -0.633797 2.56913 10.882 18.6395 0 0 0 2.91739 -5.27084 0.867866 -7.43575 
3121 9 -0.632646 0.152544 8.93159 30.2329 1 0 0 0 0 0 -7.36929 
3058 9 -0.471396 3.31558 8.19971 24.8959 0 0 0 -0.610208 -3.33732 -4.83623 -7.0303 
2913 9 -0.583131 3.05579 10.646 28.2907 0 0 0 -3.12401 5.88479 4.61777 -7.38652 
3005 9 -0.579733 2.17263 10.3604 25.8356 0 0 0 5.90822 6.80945 -2.14873 -7.07097 
3211 9 -0.659853 2.10124 8.13459 27.6608 0 0 0 -1.92299 -4.36236 6.17679 -7.31381 
2926 10 1.0347 3.49269 9.08619 26.588 0 0 0 0.96714 -1.60568 -0.62968 -9.42108 
3282 10 1.02405 1.92552 9.2663 29.2311 0 0 0 0 0 0 -9.82941 
2811 9 -0.677956 2.54965 7.49932 30.2657 0 0 0 0 0 0 -7.47036 
3241 9 -0.578901 2.09842 10.6569 30.7246 0 0 0 0 0 0 -7.10823 
2884 9 -0.582888 0.154036 9.99287 27.8706 0 0 0 -2.20498 -2.7015 5.38065 -6.9761 
2844 9 -0.515252 2.7063 9.05375 32.7021 0 0 0 0 0 0 -6.10075 
2720 10 0.960692 0.586101 9.23132 32.092 0 0 0 0 0 0 -9.91637 
2980 9 -0.557407 0.970651 10.9069 33.3026 0 0 0 0 0 0 -6.28674 
1493 5 -0.589753 2.35238 13.0262 -5.98123 0 0 0 0 0 0 -5.5394 
1511 6 0.956624 1.09753 12.4758 -7.27982 0 0 0 0 0 0 -10.8096 
1536 6 1.01931 3.55829 14.5641 -5.53605 0 0 0 0 0 0 -12.4153 
1840 5 -0.658275 0.14494 14.3119 -7.28475 0 0 0 0 0 0 -5.37409 
1539 5 -0.586023 0.627194 13.0296 -4.04772 0 0 0 0 0 0 -5.4608 
1484 6 1.06867 2.91108 11.696 -4.45009 0 0 0 0 0 0 -12.346 
1939 5 -0.575202 2.99693 12.8624 -2.9592 0 0 0 0 0 0 -5.09385 
1437 6 0.994971 0.701043 13.5896 -2.07916 0 0 0 0 0 0 -12.4833 
2018 6 1.02361 3.42555 12.3281 -1.12582 0 0 0 0 0 0 -12.5618 
1764 5 -0.709877 1.58105 13.0103 -0.521059 0 0 0 0 0 0 -5.36355 
586 1 -0.635346 2.00247 13.3829 3.25464 0 0 0 -8.79498 -2.17424 3.01813 -6.10228 
146 2 0.659519 1.13009 12.1695 1.24147 1 0 0 -0.50926 -0.405106 -0.986733 -10.8326 
398 2 0.724015 2.86643 11.4681 3.54464 0 0 0 -1.28942 0.255369 -2.56461 -10.9793 
697 1 -0.689987 3.09514 11.6993 1.49222 0 0 0 -1.23396 2.89919 -3.32951 -6.0208 
665 2 0.726694 0.238049 12.7053 4.3311 1 0 0 -0.363697 1.62834 -3.08819 -11.1269 
807 4 0.910454 1.0426 12.4351 9.28029 0 0 0 1.66218 -0.449166 -0.538439 -10.7448 
218 1 -0.602229 0.225175 13.1273 7.63408 0 0 0 2.45399 5.65288 -4.69254 -6.56072 
416 2 0.709417 2.16813 13.2671 6.70996 0 0 0 2.292 -0.737831 -1.10116 -10.8552 
572 1 -0.631161 1.91176 11.7955 5.3995 0 0 0 2.36498 -1.25901 2.13042 -5.98081 
690 1 -0.684607 2.82932 11.7684 8.26916 0 0 0 0.992038 -0.273453 2.91258 -6.77856 
491 1 -0.670115 0.90974 14.5825 10.003 0 0 0 -3.65933 -4.37069 5.72834 -6.86406 
39 1 -0.635205 3.23782 14.6114 7.96497 0 0 0 -7.86984 1.37769 -1.97984 -6.77003 
956 3 -0.629664 2.2292 12.3433 10.8865 0 0 0 -2.12731 -1.57519 1.61518 -6.71052 
733 4 1.00626 0.962892 12.8971 13.7423 0 0 0 -0.0519205 0.731809 -1.00395 -9.87378 
789 3 -0.561778 1.42035 13.1288 15.5926 0 0 0 0.472017 -3.87577 0.743552 -7.27714 
2408 8 1.00609 0.963981 12.0401 17.2523 0 0 0 -3.39241 -0.9048 -0.0729774 -9.60662 
905 3 -0.522951 3.0791 12.7847 13.4283 0 0 0 3.66976 6.44489 -4.07367 -6.79109 
832 4 0.932785 2.40519 14.3723 11.2824 0 0 0 -1.42991 2.23353 0.767788 -10.5332 
1136 3 -0.579917 1.11355 14.7299 13.1972 0 0 0 -2.66712 1.25016 -5.3292 -6.94628 
2197 7 -0.466723 0.0688226 11.6174 21.4798 1 0 0 -3.61873 -2.63288 -4.22755 -6.92886 
1060 3 -0.543546 2.43098 12.8206 20.865 0 0 0 -1.47382 0.434333 -1.79724 -7.17712 
2260 8 0.959917 2.45225 14.2566 19.4054 0 0 0 1.95471 1.58903 -0.481597 -9.55273 
2506 8 0.934092 0.907769 13.3358 21.9942 1 0 0 -0.248969 -1.281 1.46717 -9.34673 
2242 7 -0.603054 2.47064 13.3915 23.6467 0 0 0 5.41105 -4.76408 4.97231 -7.58463 
1274 3 -0.583253 0.587251 12.9809 19.0142 0 0 0 -5.82723 -1.51884 -1.33577 -7.37096 
2570 8 1.0297 2.37194 11.4031 24.0336 0 0 0 1.85542 -1.77285 -2.60677 -9.45969 
1235 3 -0.62759 3.04602 13.2896 17.7919 0 0 0 -2.84714 -4.2785 -4.23937 -7.30184 
2709 9 -0.619179 0.821542 12.2771 28.7935 0 0 0 0.974645 3.96433 -6.24071 -7.57155 
2876 9 -0.58546 2.33681 12.8985 26.3754 0 0 0 -0.143373 -4.70269 3.17828 -7.30968 
2757 10 1.01242 1.2254 14.4525 24.9139 0 0 0 -1.43301 -1.74356 1.79221 -9.30274 
2727 10 1.02359 0.945403 11.5108 26.9116 0 0 0 -0.293904 -1.70713 0.899739 -9.60679 
2700 10 0.983015 2.69105 12.3765 29.6868 0 0 0 0 0 0 -9.78986 
3056 9 -0.544634 0.478045 14.5147 26.8802 0 0 0 7.49554 -1.41287 0.659447 -7.22899 
3062 9 -0.627504 2.19488 14.4807 29.8338 0 0 0 0 0 0 -7.64367 
2752 10 0.9499 2.41606 14.7307 27.6741 0 0 0 -2.37118 -0.783915 1.81654 -9.63573 
2453 7 -0.538086 0.417878 12.0288 24.2909 0 0 0 -2.41094 0.501027 -9.86238 -7.28264 
2979 9 -0.588566 3.20861 12.932 33.1985 0 0 0 0 0 0 -6.36133 
2755 9 -0.603041 0.961413 12.9753 31.4267 0 0 0 0 0 0 -6.92737 
3083 10 0.921141 2.04122 14.2903 32.4858 0 0 0 0 0 0 -9.20096 
3194 9 -0.515043 0.330772 14.1626 33.6452 0 0 0 0 0 0 -5.9442 
3234 10 0.984917 2.81062 11.0871 32.5951 0 0 0 0 0 0 -9.49063 
1794 5 -0.498313 0.0641719 16.4931 -5.53735 0 0 0 0 0 0 -5.98511 
1660 5 -0.567971 2.53231 15.5531 -7.05451 0 0 0 0 0 0 -5.31751 
1494 5 -0.515707 1.24785 17.7262 -8.24278 0 0 0 0 0 0 -4.65997 
1541 6 0.890768 0.928492 15.8973 -8.1644 0 0 0 0 0 0 -10.3857 
1868 6 0.967844 3.57764 17.2849 -7.26231 0 0 0 0 0 0 -11.9282 
1429 5 -0.608697 2.46738 18.2195 -5.89243 0 0 0 0 0 0 -5.48523 
1846 5 -0.560031 2.20606 15.3179 -4.18135 0 0 0 0 0 0 -5.92774 
2035 6 0.957372 1.4514 17.2994 -4.38656 0 0 0 0 0 0 -12.3083 
1513 5 -0.686372 3.21766 17.5715 -3.29097 0 0 0 0 0 0 -5.4111 
1867 6 0.982173 3.45911 15.6134 -2.53379 0 0 0 0 0 0 -12.3126 
1890 5 -0.666459 0.509292 17.8596 -2.34134 0 0 0 0 0 0 -5.41184 
1813 5 -0.62731 3.21846 16.8681 -0.757449 0 0 0 0 0 0 -5.52531 
1978 5 -0.588477 0.981796 15.4488 -1.62043 0 0 0 0 0 0 -5.47874 
311 2 0.592543 2.27215 15.0548 -0.0440164 0 0 0 -0.0489456 0.139129 0.0845027 -10.5843 
77 1 -0.676589 1.64218 17.345 2.24979 0 0 0 -4.4258 2.98322 -3.73289 -5.84188 
2050 6 0.928858 2.30987 18.3184 -1.79829 0 0 0 0 0 0 -11.8647 
147 2 0.692375 1.94283 18.1691 4.04099 0 0 0 -0.843755 1.07555 0.616291 -10.9194 
360 2 0.657761 1.69944 15.3745 2.85715 0 0 0 0.448773 -0.379589 1.19703 -10.5103 
466 2 0.677346 3.55602 17.5741 1.38622 0 0 0 -2.64917 0.701782 -0.311118 -11.0207 
256 1 -0.619648 3.37338 16.2594 3.7891 0 0 0 1.43405 2.01029 7.7122 -6.01576 
609 1 -0.632064 1.77167 15.1729 5.80969 0 0 0 -4.61826 -1.81924 3.57005 -6.42758 
243 2 0.681398 3.27325 16.5102 6.41758 0 0 0 -0.276981 -0.12316 -0.182741 -10.8451 
637 1 -0.591456 0.417152 18.0901 5.52509 0 0 0 -1.8236 1.72419 1.74866 -6.73049 
837 4 0.80646 1.14591 15.4948 8.13483 0 0 0 -2.09394 -0.00348497 1.13087 -10.5411 
790 3 -0.643777 2.63497 16.5218 10.5802 0 0 0 0.263064 -6.3228 2.17461 -6.64064 
588 1 -0.598572 1.87614 17.5479 7.93826 1 0 0 6.1297 3.98907 -2.58542 -6.80788 
1268 4 0.909864 1.82961 18.1185 9.92671 0 0 0 1.45836 -1.53895 0.275947 -10.7545 
499 2 0.690856 0.00232528 15.924 5.32102 0 0 0 -0.52082 -0.00826964 1.37278 -10.815 
1346 4 0.976698 0.796847 16.6262 13.1595 0 0 0 -0.349797 -0.596405 0.886762 -10.0551 
725 3 -0.661159 0.535729 18.0212 11.778 0 0 0 3.60702 2.75562 -0.585171 -6.93516 
1275 3 -0.642564 1.2776 16.5669 15.2614 0 0 0 -2.16171 -3.12308 5.41815 -7.41518 
906 3 -0.591374 3.54788 15.4157 12.7105 0 0 0 -3.91951 -1.63511 -0.456466 -6.4864 
1034 3 -0.628931 2.65948 18.0856 13.2563 0 0 0 0.107576 -2.38342 2.24344 -7.49454 
2212 8 1.01699 3.11746 17.6955 15.3184 0 0 0 -1.06209 0.870702 0.32946 -9.23898 
2271 8 1.00238 1.677 15.023 16.2476 0 0 0 -1.23404 -1.30611 -0.368241 -9.61133 
1142 3 -0.637377 3.57844 15.3337 15.5454 0 0 0 -1.02828 -1.76348 2.3305 -7.49885 
759 3 -0.539218 2.36444 18.4301 17.0768 0 0 0 -1.88717 -0.724613 4.98982 -7.23852 
2614 7 -0.609781 2.95674 17.5532 22.9967 0 0 0 5.33341 0.701817 0.689369 -7.60012 
2509 8 1.03611 1.86018 17.5076 18.8374 0 0 0 -0.429814 0.517416 -0.378268 -9.36754 
2529 7 -0.600418 1.33749 15.6241 23.2773 0 0 0 2.00332 0.397817 -5.4846 -7.47435 
2201 8 0.976435 3.1578 15.646 22.3516 0 0 0 0.274844 0.740127 0.161182 -9.50311 
1109 3 -0.615974 2.19665 15.7464 18.0759 0 0 0 0.927847 1.74621 0.686725 -7.25956 
2420 7 -0.508945 1.21153 17.8437 20.7518 0 0 0 1.69605 -2.95952 -1.48168 -7.29347 
1186 3 -0.597898 1.14062 15.1844 20.6191 0 0 0 -3.05097 0.393356 -3.287 -7.55681 
2566 8 1.02624 1.62227 17.9329 24.3301 0 0 0 0.83728 0.199938 0.717799 -9.47482 
2440 7 -0.624917 -0.0135014 18.0521 23.0644 1 0 0 -3.23482 -5.47432 0.945664 -7.29548 
2187 7 -0.480558 3.59329 18.4555 19.595 0 0 0 2.05651 1.0928 -3.2814 -7.09425 
3096 9 -0.469738 2.99173 15.4882 25.8016 0 0 0 -1.49087 3.14241 -0.967377 -7.18232 
2645 9 -0.5736 1.51523 16.8248 27.9901 0 0 0 5.92649 -0.710807 -0.131818 -7.14897 
2710 9 -0.533251 0.460495 16.9495 25.5251 0 0 0 -6.18696 -3.12947 -3.62065 -7.17119 
2729 9 -0.651876 2.71106 17.4702 30.2958 0 0 0 0 0 0 -6.90153 
2663 9 -0.610209 2.85993 18.1654 25.902 0 0 0 1.50057 -0.98212 2.22402 -7.58223 
3251 10 1.01272 1.0667 16.647 29.982 0 0 0 0 0 0 -9.88001 
2779 10 1.02169 3.51268 17.7817 28.3458 0 0 0 0 0 0 -9.91089 
3029 9 -0.515239 3.44896 15.6075 32.242 0 0 0 0 0 0 -6.51741 
3106 9 -0.628654 0.521423 16.2611 31.8065 0 0 0 0 0 0 -7.38919 
3158 10 0.815826 0.315825 18.1938 32.4367 1 0 0 0 0 0 -8.64394 
3266 10 0.89385 3.66231 18.3933 31.6653 0 0 0 0 0 0 -9.18533 
1972 6 1.03517 0.887958 19.1999 -7.0092 0 0 0 0 0 0 -12.0588 
1967 5 -0.588555 2.07005 20.8105 -6.40046 0 0 0 0 0 0 -5.59628 
1979 5 -0.552514 0.528898 19.2864 -4.62812 0 0 0 0 0 0 -5.73958 
1811 5 -0.278062 0.696688 20.3642 -8.59578 0 0 0 0 0 0 -3.71659 
1447 5 -0.444617 3.60084 18.9331 -8.3861 0 0 0 0 0 0 -4.56748 
1658 6 0.983264 2.04421 20.7255 -4.37171 0 0 0 0 0 0 -12.2581 
1619 5 -0.675994 1.99688 20.1219 -2.38092 0 0 0 0 0 0 -5.55515 
103 1 -0.552372 1.6558 20.0904 3.23931 0 0 0 3.57668 -2.10106 4.81105 -6.1954 
1918 6 1.03232 2.04693 21.6438 -1.14409 0 0 0 0 0 0 -12.4472 
1435 5 -0.632322 0.0227772 21.8232 -1.77234 0 0 0 0 0 0 -5.65806 
208 1 -0.595485 1.96591 21.6423 0.850086 0 0 0 -1.81922 1.08921 -0.723851 -5.58383 
260 1 -0.603111 2.80214 19.2213 0.339712 0 0 0 -2.50928 -1.89751 0.740267 -5.86305 
407 2 0.685665 3.42816 20.8668 3.76192 0 0 0 1.82014 -0.406702 0.25387 -10.5984 
280 2 0.720177 0.317566 21.4009 2.03251 0 0 0 0.644274 0.829617 0.214766 -11.3186 
653 2 0.648188 0.908093 18.5469 0.710052 0 0 0 -2.24984 2.01632 -1.06011 -10.7931 
263 2 0.706925 1.77026 19.6112 6.89378 1 0 0 -0.311431 0.643868 2.75845 -10.7396 
1396 4 0.873299 0.606084 21.5358 9.26612 0 0 0 -0.121005 -1.98974 -1.82568 -10.2779 
532 1 -0.61122 1.0691 21.1048 5.75884 0 0 0 -4.53521 3.35777 1.93738 -6.23881 
879 4 0.820408 3.35795 20.9018 9.81579 0 0 0 -1.32893 2.15628 -2.11421 -10.3233 
834 3 -0.621971 3.37235 20.5336 7.89376 0 0 0 7.44711 -0.606811 -0.712201 -6.77387 
1263 3 -0.618264 1.45854 20.146 10.5122 0 0 0 0.704663 1.18982 -5.9239 -6.94392 
590 1 -0.604176 0.0734134 20.0217 8.15941 0 0 0 -4.33824 -1.23318 2.7176 -6.52626 
131 1 -0.644061 3.29824 18.5439 5.61756 0 0 0 -5.18805 -1.46151 4.07366 -6.57267 
786 3 -0.518137 3.06281 21.0691 16.6903 0 0 0 2.27628 2.45652 -4.98581 -6.96995 
1283 4 1.00062 3.29559 21.8285 14.8137 0 0 0 -1.33057 -1.55353 -1.21966 -9.73039 
912 3 -0.657783 2.72633 21.2928 12.8587 0 0 0 -7.07157 2.89927 3.73632 -7.36833 
1328 3 -0.518435 1.42922 19.7445 14.8775 1 0 0 2.93978 -3.08813 2.37016 -7.00753 
954 4 1.00613 1.64279 19.7255 12.6771 0 0 0 -0.472614 1.28715 -0.282175 -10.1048 
1214 4 1.02428 1.19507 20.0585 16.8048 0 0 0 -3.72862 0.863798 -1.66467 -9.49607 
2222 7 -0.503708 0.444064 22.1135 17.2808 1 0 0 3.07212 -2.286 0.50591 -6.97098 
2494 7 -0.645833 0.828464 21.3823 21.0986 0 0 0 -2.80107 3.77158 -2.02405 -7.38345 
2390 8 1.0236 2.84849 21.4048 23.2882 0 0 0 3.19948 -2.88434 -1.55088 -9.44566 
2474 7 -0.601931 2.97443 20.0908 21.616 0 0 0 0.536441 3.25383 -1.90013 -7.27823 
2305 8 1.02747 0.552129 19.627 21.7647 0 0 0 2.22051 0.858006 -1.26821 -9.70836 
2182 8 1.01409 2.9065 20.3493 19.747 0 0 0 -0.275076 0.360289 1.52738 -9.38852 
2208 7 -0.627695 1.63871 19.9659 23.6869 0 0 0 0.278247 2.74728 -3.43026 -7.30162 
815 3 -0.604824 1.06368 19.902 18.9554 0 0 0 -3.58435 -0.144105 1.99002 -7.3983 
2636 8 0.937353 0.0339811 21.6784 19.243 1 0 0 -1.03537 0.145832 -1.63549 -9.57331 
3175 9 -0.665058 3.29961 21.1631 30.7938 0 0 0 0 0 0 -7.78 
2874 10 0.908202 1.44602 19.8785 30.1297 0 0 0 0 0 0 -9.63219 
2706 9 -0.555784 0.917378 21.6879 29.8939 0 0 0 0 0 0 -7.09939 
2799 10 0.996334 3.26761 20.1821 26.136 0 0 0 0.593276 -1.58361 -0.0262526 -9.55823 
3027 9 -0.624413 1.20747 20.4119 26.2419 0 0 0 -6.38206 -3.06225 -1.15725 -7.07208 
3183 9 -0.628563 2.2715 19.3603 28.4482 0 0 0 -3.4035 3.93922 4.11717 -7.46935 
2754 9 -0.477713 3.10824 22.0402 25.2755 0 0 0 3.79265 6.30026 -2.2351 -6.8343 
3316 10 1.00278 0.674578 21.8812 27.6053 0 0 0 0.335662 3.04035 0.00531841 -9.57386 
3188 10 0.934346 0.565925 18.7415 27.2255 0 0 0 -0.375085 -0.585621 -0.69137 -9.6503 
3195 9 -0.618303 0.0548063 18.5695 30.2141 0 0 0 0 0 0 -7.42209 
3164 9 -0.579419 2.61847 21.9813 27.9133 0 0 0 -1.15389 2.53471 -2.07742 -7.36649 
2835 9 -0.67377 1.94589 19.1518 32.1451 0 0 0 0 0 0 -7.18974 
3134 10 0.926996 2.38478 21.2765 32.5699 0 0 0 0 0 0 -8.99579 
2651 9 -0.591238 0.500981 21.4774 32.7366 0 0 0 0 0 0 -6.78574 
1948 5 -0.591178 1.19838 24.6907 -5.78399 0 0 0 0 0 0 -5.58676 
2100 6 1.00265 0.556887 22.7996 -6.47164 0 0 0 0 0 0 -11.9966 
1538 5 -0.456667 2.10136 23.0265 -7.73334 0 0 0 0 0 0 -4.6858 
1646 5 -0.52069 2.99009 25.5529 -7.62704 0 0 0 0 0 0 -4.84476 
1616 5 -0.602679 3.58129 23.3855 -5.14788 0 0 0 0 0 0 -5.4453 
1490 5 -0.557916 1.13588 22.4699 -4.34833 0 0 0 0 0 0 -5.77072 
1849 6 1.06065 2.26499 24.1361 -3.93767 0 0 0 0 0 0 -12.5762 
2102 5 -0.606833 1.02893 25.5217 -3.3119 0 0 0 0 0 0 -5.51331 
2006 5 -0.617832 0.87105 25.1661 -0.832466 0 0 0 0 0 0 -5.04791 
251 2 0.691452 2.69692 23.2061 1.9593 0 0 0 -0.816873 -0.768702 -0.308073 -10.8673 
1987 6 0.993372 2.91565 25.0353 -1.21695 0 0 0 0 0 0 -12.2761 
1959 5 -0.588819 2.28954 23.2874 -2.00933 0 0 0 0 0 0 -5.26299 
167 1 -0.658692 2.63489 25.0061 1.25482 0 0 0 -0.779379 0.904486 -0.411569 -5.75376 
363 1 -0.595645 1.78186 23.0024 3.75712 0 0 0 -0.490227 4.44823 -2.41724 -6.16071 
126 2 0.73727 0.615505 25.74 1.02631 0 0 0 -0.651812 0.819543 1.42554 -11.7604 
478 2 0.68031 2.68012 25.6086 3.90097 0 0 0 0.442714 0.929551 0.307461 -10.9288 
266 1 -0.608735 -0.0104565 23.3996 1.398 1 0 0 -3.30506 1.10753 -0.779421 -6.07168 
432 1 -0.635501 3.26302 24.3855 5.47288 0 0 0 -2.49822 -9.49658 -3.01411 -6.09202 
942 3 -0.637419 1.84327 22.7823 10.427 0 0 0 -1.81979 3.34507 0.823512 -6.92322 
1376 3 -0.508678 1.94696 25.56 10.5696 0 0 0 -1.66207 -1.48048 2.28839 -6.8327 
944 4 0.903191 2.90664 23.8594 8.99978 0 0 0 0.170202 -0.166477 -0.739457 -10.8611 
439 1 -0.638662 3.00481 25.6246 7.97326 0 0 0 -2.99886 2.51547 2.73795 -6.32352 
1018 4 0.925501 1.19335 25.2607 7.02027 0 0 0 -0.872689 1.27066 0.0938014 -11.0033 
17 1 -0.603478 1.5963 22.8958 7.70332 0 0 0 2.86556 -2.55404 -5.79455 -6.50685 
603 2 0.726559 2.39778 22.5957 5.75986 0 0 0 -0.293229 -0.889682 0.768761 -10.9746 
742 4 0.974278 0.0548336 24.6345 10.647 1 0 0 1.23339 1.6597 1.12201 -10.3349 
129 1 -0.551688 0.0783217 25.0595 8.67853 0 0 0 -3.89288 -1.00547 -0.342951 -6.1833 
1320 3 -0.681908 1.939 25.5868 15.6261 0 0 0 -3.07759 -5.78237 -1.43774 -7.64654 
1244 3 -0.617759 1.73047 24.2437 12.9818 0 0 0 2.91229 -0.801586 -3.25348 -7.04631 
1145 4 0.972987 2.94717 23.0856 12.0594 0 0 0 0.688117 2.79971 0.855845 -10.1866 
973 4 0.987485 0.814028 25.7206 13.8927 0 0 0 -0.604956 -0.267486 0.219268 -9.71595 
1398 3 -0.594625 1.53076 22.6702 15.0854 0 0 0 -6.92545 0.403682 -6.29544 -7.20983 
2422 8 1.0335 1.45186 23.8878 16.8171 0 0 0 1.76773 0.242296 -0.613316 -9.45059 
1337 4 0.973406 0.242469 22.6904 13.6404 1 0 0 -1.18392 1.25208 -1.56481 -9.72554 
843 4 0.918062 3.5889 25.2188 14.5764 0 0 0 -0.12589 -0.667179 0.919965 -9.86713 
2862 9 -0.519329 1.3261 25.2454 24.1075 0 0 0 -5.60658 2.23081 -3.64305 -6.94668 
1324 3 -0.57218 2.53323 24.8987 18.2565 0 0 0 -1.36806 -3.49532 3.59722 -7.41474 
2512 8 1.00666 2.42702 23.7907 19.9648 0 0 0 0.0839357 -0.526479 0.207234 -9.66804 
2586 8 1.02694 2.77131 24.8727 22.9111 0 0 0 -0.371206 -0.769222 0.810039 -9.29819 
2144 7 -0.565431 3.24101 22.9783 21.7975 0 0 0 4.65226 1.13062 5.59867 -7.56771 
2427 7 -0.518758 1.11611 22.5179 23.5339 0 0 0 1.91232 4.89272 -0.925061 -7.18221 
2258 7 -0.596409 1.15082 24.5242 21.5776 0 0 0 -1.56268 3.81474 -1.08573 -7.18002 
2199 7 -0.590363 3.29625 25.6856 20.8229 0 0 0 5.94952 0.937549 2.79145 -7.35591 
1255 3 -0.645999 2.50067 22.2057 18.934 0 0 0 -0.415303 -1.05727 1.80569 -7.19977 
2605 7 -0.580667 0.225203 23.7973 19.4166 0 0 0 8.48286 -3.26813 -1.16074 -7.38634 
2739 9 -0.613248 0.163491 22.7413 25.9602 1 0 0 1.16358 1.52617 5.34204 -7.36833 
3065 10 0.941005 2.23467 23.2127 30.1036 0 0 0 0 0 0 -9.64524 
3294 9 -0.524055 2.4 24.6497 27.7811 0 0 0 0 0 0 -7.36536 
2938 10 0.97902 1.07016 24.5703 26.0267 0 0 0 -0.360578 -0.335048 -1.84442 -9.23831 
3318 9 -0.631801 0.91743 24.5656 30.415 0 0 0 0 0 0 -7.42277 
3279 9 -0.564946 3.49913 24.5069 25.4014 0 0 0 -3.34909 1.20744 5.59057 -7.27948 
3222 9 -0.594282 2.39263 23.3992 32.4246 0 0 0 0 0 0 -6.99895 
3257 10 0.904446 0.341225 23.9203 32.3636 1 0 0 0 0 0 -9.33961 
1464 6 0.985265 1.82078 28.8003 -5.30082 0 0 0 0 0 0 -12.2844 
2080 5 -0.517315 2.03572 27.8797 -6.97495 0 0 0 0 0 0 -5.26035 
1474 5 -0.553046 0.256149 27.234 -5.26244 0 0 0 0 0 0 -5.68109 
1722 6 0.948267 1.08226 26.0915 -7.20737 0 0 0 0 0 0 -11.0233 
2078 5 -0.521602 3.53707 26.4506 -5.07638 0 0 0 0 0 0 -5.68189 
2024 5 -0.60769 2.03522 28.1712 -3.27404 0 0 0 0 0 0 -5.88754 
1434 5 -0.597578 0.527263 27.7241 -0.180191 0 0 0 0 0 0 -5.80466 
531 2 0.648017 1.71746 28.4963 3.28079 0 -1 0 -2.84561 -0.326052 -0.978302 -10.7449 
2028 5 -0.645901 2.98696 26.93 -0.88299 0 0 0 0 0 0 -5.36095 
1677 6 1.0208 0.654164 27.1362 -2.18933 0 0 0 0 0 0 -12.7699 
1518 6 0.945843 2.43169 28.8055 -0.143219 0 0 0 0 0 0 -12.1473 
656 1 -0.713121 3.07089 28.4198 1.7119 0 -1 0 -4.38434 -0.483721 -4.35023 -5.96655 
5 1 -0.652578 0.892408 25.9667 3.0772 0 0 0 2.97104 -4.47277 1.82862 -6.2173 
272 2 0.673778 3.6661 26.5997 1.26997 0 0 0 -0.533031 1.2638 1.51935 -10.9534 
497 2 0.721382 3.04128 27.6612 8.02741 0 0 0 0.15985 0.0690288 1.22335 -10.893 
509 2 0.657575 0.511972 27.9354 5.96635 0 0 0 0.935839 -0.459755 0.0399088 -10.5132 
689 1 -0.624841 2.28863 27.3295 5.16042 0 0 0 -5.61918 4.04571 2.27864 -6.30745 
1044 3 -0.657222 2.30542 28.1953 10.0325 0 -1 0 8.6147 -0.854588 4.40476 -6.83513 