ITEM: TIMESTEP
1165000
ITEM: NUMBER OF ATOMS
3344
ITEM: BOX BOUNDS pp pp ff
0.0000000000000000e+00 2.9564815319115169e+01
0.0000000000000000e+00 2.9558762944280062e+01
-8.8921683279491504e+00 4.4289169250706017e+01
ITEM: ATOMS id type q x y z ix iy iz vx vy vz c_eng 
1802 6 0.970294 1.72356 2.50112 -5.82381 0 0 0 0 0 0 -11.9855 
1748 5 -0.552992 2.14188 1.02013 -7.10683 0 0 0 0 0 0 -5.45878 
2036 6 0.847915 0.0809344 0.962901 -7.73073 0 0 0 0 0 0 -10.0877 
1735 5 -0.638364 0.00588082 2.79099 -7.00765 0 0 0 0 0 0 -5.7289 
1835 5 -0.588746 1.8613 1.03927 -4.37975 0 0 0 0 0 0 -5.2189 
1553 6 1.04584 0.84287 0.869304 -2.65107 0 0 0 0 0 0 -12.4975 
1851 5 -0.551507 2.86904 2.1504 -2.36357 0 0 0 0 0 0 -4.98119 
1662 5 -0.688605 1.3644 0.727312 -0.805768 0 0 0 0 0 0 -5.27006 
1877 5 -0.487213 1.027 3.48217 -1.02956 0 0 0 0 0 0 -5.69434 
1879 6 0.952221 2.73418 2.5049 -0.383048 0 0 0 0 0 0 -12.2026 
111 1 -0.681864 0.518596 2.15452 2.33969 1 0 0 -4.67845 -1.73352 6.67301 -6.16512 
565 2 0.640469 0.217587 1.15916 0.76094 1 0 0 1.64355 -1.20729 0.864734 -10.5848 
507 2 0.681673 2.44173 2.35673 2.88412 0 0 0 -0.362492 0.372574 -2.59252 -10.9071 
248 1 -0.642388 3.02517 0.593355 3.99732 0 0 0 -2.4295 -1.39331 -1.52793 -6.25316 
122 1 -0.60687 1.42046 3.17163 5.27224 0 0 0 2.60691 5.66918 -3.20085 -6.26987 
430 1 -0.580209 1.45935 1.54838 10.0358 0 0 0 2.89308 -0.0497643 1.43326 -6.79852 
367 2 0.727585 1.46293 3.2121 7.51569 0 0 0 0.7803 -1.38873 -0.596874 -10.786 
484 1 -0.611797 0.723826 1.31074 7.30199 1 0 0 -0.0781214 2.63375 2.6765 -6.04374 
567 2 0.718088 1.80522 1.12217 5.50082 0 0 0 2.15281 -2.2215 -0.737426 -10.9847 
1422 4 0.982992 3.36993 3.16535 10.5782 0 0 0 1.07009 -0.0495078 -2.18701 -10.6929 
88 1 -0.673298 0.14791 0.112625 4.83471 0 1 0 1.12205 1.64187 3.27611 -6.28413 
928 4 0.941896 3.67942 0.138037 10.5449 0 0 0 -1.65257 -1.42929 -0.819822 -10.6326 
1098 4 0.914199 1.10537 1.36951 12.1512 0 0 0 -1.5086 0.328675 -1.99276 -9.95552 
1143 3 -0.648365 2.48539 3.27658 15.6317 0 0 0 1.193 -2.08868 7.38051 -7.61862 
1117 4 0.965332 3.44623 3.46917 13.8061 0 0 0 0.789353 -0.950697 1.8172 -10.0225 
1121 3 -0.478121 1.05527 0.700711 14.9644 0 0 0 0.544859 4.9366 3.12204 -6.96826 
1271 3 -0.624118 2.1255 3.28777 12.1415 0 0 0 0.848295 -2.53302 6.2703 -7.00889 
1175 4 1.01162 2.78668 1.069 15.826 0 0 0 0.703072 -0.564918 0.955922 -9.67993 
1339 3 -0.597565 2.71311 0.343833 12.2869 0 0 0 -1.00203 0.048561 1.19129 -6.85985 
840 3 -0.591628 0.218523 2.89351 13.7693 1 0 0 -0.849416 -2.23715 1.38706 -7.07898 
1173 3 -0.538075 1.14378 3.12534 20.4079 0 0 0 0.218193 -2.02101 3.57006 -7.509 
2397 7 -0.563477 0.34068 0.416949 20.9412 1 0 0 -2.35094 1.26177 0.46717 -6.75909 
2296 7 -0.565452 1.00002 2.17011 22.9938 0 0 0 -11.6704 -0.990452 -2.55344 -7.05775 
2507 7 -0.618068 3.30129 0.928127 22.8628 0 0 0 -2.11194 1.32601 2.48529 -7.50284 
2398 8 1.02529 2.02195 1.27664 21.3053 0 1 0 1.24718 0.510706 -0.437409 -9.40923 
2500 8 0.997165 0.807144 2.67111 18.3735 1 0 0 -0.834549 -3.17802 1.51275 -9.51692 
2147 7 -0.673945 3.64655 2.22912 20.5547 0 0 0 5.31206 3.00603 6.24567 -7.54227 
1147 3 -0.541988 2.32766 1.6116 17.697 0 0 0 -0.840832 -2.9409 -0.642631 -7.02816 
3018 10 1.04021 1.19562 1.57264 27.6339 0 0 0 -0.429748 0.35353 0.797005 -9.70419 
3067 9 -0.678282 3.00701 1.46204 30.3488 0 0 0 0 0 0 -7.02409 
3041 9 -0.509635 1.48345 3.22532 28.6783 0 0 0 0 0 0 -6.78598 
3191 9 -0.598452 1.93339 3.21123 25.6218 0 0 0 4.87531 -2.91169 1.49284 -7.53924 
2951 9 -0.575276 0.539602 0.978753 25.8258 0 0 0 -2.95352 1.83818 3.27589 -7.27471 
3143 9 -0.499869 0.431263 0.959203 29.5551 1 0 0 0 0 0 -6.65679 
3095 10 0.983185 1.6269 2.89991 30.8277 0 0 0 0 0 0 -9.85775 
2309 8 1.03172 2.06338 1.51941 24.4639 0 0 0 -1.03326 0.33617 0.47911 -9.37169 
2814 9 -0.610397 3.55913 2.06827 27.3861 0 0 0 -2.46366 -0.987002 2.69031 -7.4741 
3190 9 -0.490512 0.786339 1.77363 32.0981 1 0 0 0 0 0 -6.0935 
1684 6 0.747566 0.445038 4.48 -7.87932 0 0 0 0 0 0 -9.57023 
1477 6 0.980304 3.45868 7.12046 -5.47067 0 0 0 0 0 0 -12.2234 
1857 5 -0.515934 2.03083 5.78774 -5.97954 0 0 0 0 0 0 -5.34189 
1590 6 1.07093 0.50834 5.42635 -4.74455 0 0 0 0 0 0 -12.1218 
1975 5 -0.439467 2.43491 3.78871 -7.65315 0 0 0 0 0 0 -5.016 
1821 6 0.993601 3.36763 4.02963 -3.5146 0 0 0 0 0 0 -12.2892 
1825 5 -0.555845 1.50782 3.72237 -4.38085 0 0 0 0 0 0 -5.77643 
1909 5 -0.636885 0.0620773 7.24508 -4.24721 0 0 0 0 0 0 -5.45579 
1818 5 -0.471718 2.15317 5.8435 -2.82165 0 0 0 0 0 0 -5.64982 
339 1 -0.617504 2.38515 4.04563 1.35083 0 0 0 -1.08339 -2.12784 1.76936 -5.65216 
1896 6 0.946335 3.05539 5.78963 -0.958883 0 0 0 0 0 0 -11.7556 
1641 5 -0.654869 1.11579 5.99765 -0.226154 0 0 0 0 0 0 -5.65265 
1664 6 0.995009 0.000928845 6.497 -1.72773 0 0 0 0 0 0 -12.454 
400 2 0.666373 2.88077 5.95776 2.16557 0 0 0 0.232152 1.30471 0.0922534 -10.6861 
428 2 0.683757 0.41145 4.4409 0.826642 0 0 0 1.46836 -1.49839 -0.530123 -11.2967 
579 1 -0.646957 1.29515 5.51197 3.45959 0 0 0 1.66033 -0.771232 -4.3403 -6.3058 
114 2 0.715743 0.117427 3.85848 3.87545 0 0 0 -1.3553 -0.0431359 -0.0122426 -10.9862 
580 1 -0.629897 3.54743 6.81445 4.37038 0 0 0 6.97439 -6.9548 0.99574 -6.26443 
202 2 0.668856 0.308598 5.87611 6.45124 1 0 0 1.28505 -1.35278 -0.12581 -10.5319 
142 1 -0.695203 2.36127 5.44546 6.75571 0 0 0 5.67321 -0.57478 4.05645 -6.52487 
980 4 0.916512 1.60075 5.55212 9.48952 0 0 0 0.944854 -0.910966 -0.412153 -10.7504 
310 2 0.702043 3.02429 4.77897 4.9266 0 0 0 -0.260179 -0.696337 -1.36837 -10.969 
55 1 -0.678978 2.528 4.02268 8.99877 0 0 0 -0.235019 4.4813 3.13307 -6.6766 
581 2 0.660648 2.8728 7.32695 6.73076 0 0 0 -1.56335 -0.905158 -0.766853 -10.557 
2393 8 1.01056 0.586009 3.91535 15.4743 0 0 0 1.17786 0.457061 -1.14618 -9.82331 
891 3 -0.50421 0.785006 6.41659 16.2614 0 0 0 -4.31632 -0.88676 5.10964 -6.6171 
37 1 -0.559402 1.83468 5.90636 11.3778 0 0 0 3.29548 -2.05425 2.99416 -6.48106 
1114 3 -0.563287 1.46781 5.41902 14.0773 0 0 0 2.46913 0.455787 -0.784429 -6.9712 
1192 4 1.05029 2.87364 6.81678 14.789 0 0 0 0.787921 1.12647 2.33265 -10.0223 
762 3 -0.611855 3.41675 5.89263 16.6278 0 0 0 -2.62238 4.91337 0.980677 -7.25761 
886 4 1.02657 0.458736 4.53005 12.3734 0 0 0 0.256878 1.09899 0.388181 -10.2955 
2304 8 1.02128 0.590844 4.95227 21.4381 1 0 0 0.223384 -0.530871 -0.806267 -9.18311 
2521 7 -0.565496 2.35826 5.75643 20.421 0 0 0 0.478101 -6.27105 2.45227 -7.43457 
2202 7 -0.520218 1.7846 4.63573 22.9218 0 0 0 0.960138 4.01503 -2.54723 -7.37215 
937 3 -0.64944 2.6292 4.0449 18.3184 0 0 0 -9.67677 -4.01278 1.36435 -7.08423 
2551 8 0.985626 1.72991 5.8842 18.1825 0 0 0 0.260435 2.31999 1.54579 -9.97987 
2618 8 0.995474 3.4665 4.07218 20.1892 0 0 0 0.136906 -1.09011 -0.685521 -9.64685 
2151 7 -0.58461 0.0899472 4.54458 17.8833 1 0 0 -0.850189 -0.651671 -4.69223 -7.35917 
2900 10 0.992952 0.799326 4.68971 24.8419 0 0 0 0.526288 -0.709132 -0.461709 -9.30513 
3034 9 -0.642266 2.77108 4.6162 30.302 0 0 0 0 0 0 -7.03808 
3146 10 0.967183 0.673749 7.23624 26.4746 0 0 0 2.99643 -1.58948 2.30145 -9.30065 
3073 9 -0.496554 1.71761 5.45912 27.4819 0 0 0 1.26312 4.3023 3.48716 -6.65245 
2693 10 0.994816 3.05265 6.22522 28.7807 0 0 0 -0.675571 1.23932 -0.906923 -9.82319 
3125 9 -0.594748 0.142137 6.06497 29.6391 0 0 0 0 0 0 -7.50364 
3184 9 -0.521339 1.03396 6.72103 24.6752 1 0 0 -2.78083 2.33165 -3.61098 -7.27551 
3344 9 -0.502307 3.49862 5.58706 25.4253 0 0 0 -0.287639 0.635971 -2.97994 -7.23669 
3093 9 -0.581855 0.670474 4.44415 31.9083 0 0 0 0 0 0 -6.62282 
3136 9 -0.595543 0.779696 7.26149 32.4875 0 0 0 0 0 0 -6.48058 
2857 9 -0.538378 3.60825 6.06231 32.4556 0 0 0 0 0 0 -6.35775 
2880 10 0.934461 1.54427 6.02933 31.2853 0 0 0 0 0 0 -9.76873 
1668 5 -0.476972 1.63978 10.6764 -7.73594 0 0 0 0 0 0 -4.67739 
1710 6 0.979471 3.38009 9.89309 -7.55904 0 0 0 0 0 0 -11.2819 
1995 5 -0.560686 1.7907 8.27784 -5.98123 0 0 0 0 0 0 -5.3904 
1930 6 0.8721 0.671515 7.74662 -7.51036 0 0 0 0 0 0 -10.9459 
1697 5 -0.557621 3.30846 10.3976 -5.66731 0 0 0 0 0 0 -5.19291 
1842 5 -0.401007 2.5337 8.15972 -8.52032 0 0 0 0 0 0 -4.39399 
2066 6 1.02504 1.28855 8.79295 -4.10193 0 0 0 0 0 0 -12.2884 
1595 5 -0.544558 3.0638 8.26899 -3.57222 0 0 0 0 0 0 -5.38544 
2025 5 -0.58874 1.63233 10.6284 -3.32851 0 0 0 0 0 0 -5.50832 
1628 5 -0.664529 3.03532 10.4091 -0.960219 0 0 0 0 0 0 -5.64561 
1920 5 -0.577039 0.902514 8.3277 -2.0179 0 0 0 0 0 0 -5.83941 
1504 6 0.950176 1.04994 10.0842 -1.02812 0 0 0 0 0 0 -11.9346 
380 2 0.691425 0.498211 7.84578 0.950504 0 0 0 -0.864204 -1.75287 0.598494 -11.1984 
423 1 -0.63034 0.616794 9.90846 0.869697 0 0 0 -0.812081 6.27935 -0.816462 -5.9174 
137 2 0.686575 1.43577 7.46331 4.02817 0 0 0 -0.313378 -2.25883 1.06279 -10.7011 
663 1 -0.575249 2.40691 7.86403 1.34783 0 0 0 -0.346167 4.34416 -5.72122 -6.08015 
530 2 0.702784 3.45979 9.68445 0.896629 0 0 0 0.56354 0.716626 1.13827 -11.5383 
345 1 -0.593596 1.93771 9.4545 3.56012 0 0 0 1.38987 -5.00952 -2.97733 -6.28113 
213 2 0.681472 0.100893 10.1418 2.90097 0 0 0 1.37944 1.1802 -0.800423 -10.822 
1138 3 -0.638572 2.34352 9.56832 11.0131 0 0 0 -2.20018 -0.626651 -2.99467 -6.82653 
1085 3 -0.639993 0.872908 9.79041 8.14604 0 0 0 -3.0857 -4.14192 -1.43223 -6.73538 
100 1 -0.664263 0.808097 7.9776 5.86646 0 0 0 1.67269 4.39617 4.68215 -6.7544 
614 2 0.731638 1.38424 10.1233 6.13402 0 0 0 -1.53376 -0.107357 -1.39056 -11.1719 
1006 4 0.902769 2.87163 9.66128 9.10941 0 0 0 -1.65843 -1.08979 1.57255 -10.883 
577 1 -0.623973 3.42884 9.21224 6.23906 0 0 0 0.804159 -0.133671 -0.18485 -6.67829 
1362 4 0.906583 0.0782342 8.16023 8.63842 0 0 0 -1.15099 0.633449 0.0534591 -10.8233 
480 1 -0.649167 2.41324 7.50315 8.92757 0 0 0 0.0905149 -4.96172 3.18296 -6.9613 
474 1 -0.580242 3.13702 7.63532 13.0152 0 0 0 2.54243 5.77528 -3.3318 -6.74953 
993 3 -0.614721 2.34299 8.42253 15.7313 0 0 0 -2.68271 -3.32621 -2.27412 -7.20393 
1115 3 -0.603196 0.65103 10.0865 16.8816 1 0 0 -1.0585 -6.34103 4.16482 -7.18806 
800 4 0.997438 1.02004 9.80405 14.8459 0 0 0 -0.682368 -0.139032 0.00981742 -10.0083 
1334 3 -0.647198 1.43979 10.7046 13.1048 1 0 0 -0.807438 4.23969 0.00561168 -7.00146 
922 4 0.992477 1.70946 7.83275 11.7294 0 0 0 1.19335 -0.710331 -1.6559 -10.3721 
1321 3 -0.391764 2.95707 10.9292 15.7782 0 0 0 -4.05787 -0.920412 -3.66221 -6.44408 
780 4 1.03745 3.16246 11.0085 12.3001 0 0 0 1.78294 0.703472 1.85443 -10.4338 
1291 3 -0.571857 0.436957 8.19043 13.4535 0 0 0 -3.35743 -2.13363 -3.46373 -7.21965 
1024 4 0.906368 0.166271 10.4355 11.547 1 0 0 -0.973236 -1.11021 1.13242 -10.2742 
2178 8 0.995201 2.26897 8.90762 17.658 0 0 0 -0.638311 0.684679 -2.64639 -9.94882 
2549 8 1.02454 2.78717 8.5763 22.8284 0 0 0 -0.0939769 1.09093 0.146109 -9.2781 
1216 3 -0.664188 0.815625 7.76287 18.3849 0 0 0 3.07903 -2.82554 -3.43115 -7.1863 
2205 7 -0.598487 2.83957 8.91408 20.7708 0 0 0 3.49047 -0.69856 -1.51478 -7.17873 
1210 3 -0.607383 3.32443 7.45644 18.6455 0 0 0 -6.3158 4.9934 -6.95936 -6.9985 
2443 7 -0.461378 1.33736 9.91932 23.0374 1 0 0 0.311581 -1.85039 -10.0442 -6.57776 
2270 7 -0.606101 0.47091 9.82918 19.7783 1 0 0 3.66084 3.60314 -3.26928 -7.11747 
2417 8 1.02718 0.423175 8.04042 20.3394 0 0 0 -1.14412 1.10564 -0.0200501 -9.55611 
2256 8 0.973295 2.10131 10.7677 20.6264 0 0 0 0.0563693 -0.436222 -0.163125 -9.52112 
2306 7 -0.565323 3.39712 10.7853 22.2489 0 0 0 5.58284 -3.03634 -4.11685 -6.87763 
924 3 -0.609951 2.53528 10.9963 18.5909 0 0 0 4.25065 2.27347 -0.216234 -7.67676 
2177 7 -0.5413 0.979256 7.53269 22.1146 1 0 0 1.86222 -3.50113 -0.68883 -7.02174 
3121 9 -0.629536 0.152514 8.93314 30.2329 1 0 0 0 0 0 -7.28904 
3058 9 -0.488593 3.41641 8.30397 24.6551 0 0 0 6.51031 2.36323 3.57253 -7.17548 
2913 9 -0.573022 3.14684 10.5224 28.1999 0 0 0 3.12138 -0.948395 1.04934 -7.4912 
3005 9 -0.563287 1.95352 10.2763 25.8085 0 0 0 0.15469 -4.02538 4.90886 -7.21589 
3211 9 -0.609613 2.03051 7.97928 27.7221 0 0 0 0.51545 -1.48156 -0.656403 -7.40388 
2926 10 0.992893 3.4561 8.99481 26.4622 0 0 0 1.46138 0.108433 -1.4251 -9.31109 
3282 10 1.02388 1.92513 9.26791 29.2311 0 0 0 0 0 0 -9.7439 
2811 9 -0.670929 2.54914 7.50062 30.2657 0 0 0 0 0 0 -7.45135 
3241 9 -0.58379 2.098 10.6588 30.7246 0 0 0 0 0 0 -7.19797 
2884 9 -0.576964 0.124758 9.95471 27.9327 0 0 0 -2.33734 0.509766 2.63211 -7.13033 
2844 9 -0.515103 2.70575 9.05532 32.7021 0 0 0 0 0 0 -6.10935 
2720 10 0.960345 0.585983 9.23293 32.092 0 0 0 0 0 0 -9.89592 
2980 9 -0.557302 0.970455 10.9088 33.3026 0 0 0 0 0 0 -6.2974 
1493 5 -0.58986 2.35191 13.0284 -5.98123 0 0 0 0 0 0 -5.5313 
1511 6 0.956626 1.09731 12.478 -7.27982 0 0 0 0 0 0 -10.8194 
1536 6 1.01917 3.55757 14.5666 -5.53605 0 0 0 0 0 0 -12.4345 
1840 5 -0.658305 0.144911 14.3144 -7.28475 0 0 0 0 0 0 -5.36782 
1539 5 -0.587187 0.627067 13.0318 -4.04772 0 0 0 0 0 0 -5.45677 
1484 6 1.06909 2.9105 11.698 -4.45009 0 0 0 0 0 0 -12.3652 
1939 5 -0.573424 2.99633 12.8647 -2.9592 0 0 0 0 0 0 -5.06369 
1437 6 1.00263 0.700901 13.592 -2.07916 0 0 0 0 0 0 -12.5713 
2018 6 1.0185 3.42486 12.3302 -1.12582 0 0 0 0 0 0 -12.5443 
1764 5 -0.704993 1.58073 13.0126 -0.521059 0 0 0 0 0 0 -5.2623 
586 1 -0.624788 2.12894 13.4813 3.22692 0 0 0 2.99984 -1.98306 1.89918 -6.05859 
146 2 0.650978 1.12655 12.231 1.14136 1 0 0 -1.1418 -1.12536 -1.0899 -10.8038 
398 2 0.701395 2.77327 11.4764 3.5616 0 0 0 0.0192813 -0.340459 -3.87903 -10.8356 
697 1 -0.675653 3.0944 11.6499 1.47831 0 0 0 -5.5201 -0.34736 1.51528 -6.08113 
665 2 0.701133 0.267894 12.8285 4.30575 1 0 0 -0.215037 -1.09296 -1.69473 -10.8632 
807 4 0.918381 1.0731 12.4007 9.24436 0 0 0 1.21871 -0.320842 -0.0336578 -10.7597 
218 1 -0.617061 0.437326 13.2423 7.53833 0 0 0 -1.8432 0.0523699 -3.48543 -6.56702 
416 2 0.740717 2.26894 13.3414 6.61903 0 0 0 -0.451189 1.10193 -1.21034 -10.9139 
572 1 -0.656828 1.80576 11.8545 5.3432 0 0 0 -4.53494 -3.46006 4.58088 -6.07447 
690 1 -0.658264 2.93886 11.6478 8.1932 0 0 0 -1.67938 -0.648877 0.74767 -6.69869 
491 1 -0.637095 0.890318 14.5187 10.0241 0 0 0 -2.26676 3.12079 5.36205 -6.87641 
39 1 -0.64935 3.05808 14.5711 8.07919 0 0 0 -4.63898 -3.00047 5.33381 -6.8816 
956 3 -0.654394 2.37845 12.3436 10.7888 0 0 0 2.42408 -3.74427 -0.940481 -6.82835 
733 4 1.00276 0.902556 12.8702 13.6845 0 0 0 0.408811 0.131171 -1.22011 -9.95788 
789 3 -0.557826 1.44942 13.193 15.6471 0 0 0 2.62083 -1.75415 -0.0169124 -7.36408 
2408 8 0.994599 1.2069 12.0011 17.2739 0 0 0 -4.4704 -0.905416 1.5399 -9.701 
905 3 -0.549626 3.10483 12.7913 13.3436 0 0 0 2.23933 -1.55031 1.2969 -7.04415 
832 4 0.932055 2.53088 14.3367 11.3665 0 0 0 0.808977 0.688847 1.80808 -10.5576 
1136 3 -0.583548 1.10541 14.6953 13.0537 0 0 0 -4.25314 -2.96273 1.85281 -6.83846 
2197 7 -0.486075 -0.0126238 11.7288 21.3359 1 0 0 -9.98374 2.97354 -9.33959 -6.88535 
1060 3 -0.549289 2.48692 12.8508 20.9352 0 0 0 -0.334165 -1.01737 6.76845 -7.45076 
2260 8 0.93982 2.33496 14.1962 19.4344 0 0 0 1.63671 0.579482 -1.34359 -9.47324 
2506 8 0.929916 0.860329 13.2818 22.1107 1 0 0 1.33093 -1.05288 2.37988 -9.31878 
2242 7 -0.599848 2.5543 13.4226 23.5873 0 0 0 -1.46848 4.29253 -1.9958 -7.42075 
1274 3 -0.597528 0.576365 13.1005 19.0708 0 0 0 1.87663 -0.160825 -0.139254 -7.38147 
2570 8 1.01479 2.31426 11.3848 24.079 0 0 0 2.926 -2.22438 0.962298 -9.44038 
1235 3 -0.638282 3.08929 13.3388 17.8032 0 0 0 3.71279 2.09519 -5.41448 -7.13927 
2453 7 -0.596769 0.489709 12.1383 24.1999 0 0 0 -2.45798 1.36677 3.07681 -7.56959 
2709 9 -0.642354 0.81436 12.3442 28.8292 0 0 0 -6.34814 -4.33268 -2.08168 -7.63009 
2876 9 -0.615079 2.44772 12.8164 26.398 0 0 0 -0.396552 -6.81616 1.82205 -7.3552 
2757 10 0.99906 1.2476 14.2685 25.0032 0 0 0 -0.832049 0.253296 0.00440476 -9.29728 
2727 10 0.980503 1.005 11.5716 27.007 0 0 0 -1.99529 -0.239847 0.222312 -9.56232 
2700 10 0.963872 2.69051 12.3786 29.6868 0 0 0 0 0 0 -9.72921 
3056 9 -0.560774 0.555195 14.5877 26.92 0 0 0 -1.6167 3.30208 -1.97861 -7.53412 
3062 9 -0.643776 2.19444 14.4832 29.8338 0 0 0 0 0 0 -7.67521 
2979 9 -0.588267 3.20796 12.9343 33.1985 0 0 0 0 0 0 -6.37074 
2755 9 -0.599398 0.961219 12.9776 31.4267 0 0 0 0 0 0 -6.89033 
3083 10 0.922475 2.0408 14.2928 32.4858 0 0 0 0 0 0 -9.1816 
3194 9 -0.515484 0.330706 14.1651 33.6452 0 0 0 0 0 0 -5.95447 
3234 10 0.984804 2.81005 11.089 32.5951 0 0 0 0 0 0 -9.47114 
1794 5 -0.498321 0.0641589 16.4959 -5.53735 0 0 0 0 0 0 -5.97937 
1660 5 -0.56807 2.53179 15.5558 -7.05451 0 0 0 0 0 0 -5.30848 
1494 5 -0.515668 1.2476 17.7293 -8.24278 0 0 0 0 0 0 -4.65404 
1541 6 0.890759 0.928304 15.9001 -8.1644 0 0 0 0 0 0 -10.3957 
1868 6 0.967996 3.57692 17.2879 -7.26231 0 0 0 0 0 0 -11.9445 
1429 5 -0.608973 2.46688 18.2227 -5.89243 0 0 0 0 0 0 -5.47346 
1846 5 -0.56031 2.20562 15.3206 -4.18135 0 0 0 0 0 0 -5.91588 
2035 6 0.957637 1.45111 17.3024 -4.38656 0 0 0 0 0 0 -12.3287 
1513 5 -0.686436 3.21701 17.5745 -3.29097 0 0 0 0 0 0 -5.39236 
1867 6 0.984181 3.45841 15.6161 -2.53379 0 0 0 0 0 0 -12.3808 
1890 5 -0.667304 0.509189 17.8627 -2.34134 0 0 0 0 0 0 -5.38903 
1813 5 -0.63866 3.21781 16.871 -0.757449 0 0 0 0 0 0 -5.36577 
1978 5 -0.585304 0.981598 15.4515 -1.62043 0 0 0 0 0 0 -5.50736 
311 2 0.610577 2.28784 15.2332 0.0347358 0 0 0 1.91009 -0.984141 2.62671 -10.6952 
77 1 -0.657977 1.60404 17.349 2.20855 0 0 0 -3.50586 7.90036 1.16655 -5.9006 
2050 6 0.932008 2.30941 18.3216 -1.79829 0 0 0 0 0 0 -11.927 
147 2 0.664693 1.91048 18.1635 4.01062 0 0 0 0.666925 -0.175039 1.48771 -10.7046 
360 2 0.662537 1.636 15.4245 2.96819 0 0 0 -2.0004 -0.0813718 1.15498 -10.5191 
466 2 0.700339 3.56168 17.5595 1.4191 0 0 0 -1.54255 0.288496 0.951062 -11.2496 
256 1 -0.608173 3.6205 16.2014 3.48828 0 0 0 6.47894 6.1696 0.165728 -5.90745 
609 1 -0.642333 1.96658 15.2444 5.55884 0 0 0 -1.1105 -1.35366 -2.89605 -6.63092 
243 2 0.668569 3.18251 16.5015 6.57105 0 0 0 -0.218836 0.505388 -0.417262 -10.6926 
637 1 -0.575361 0.203809 18.1292 5.56137 0 0 0 1.88439 -4.57599 2.42892 -6.70362 
837 4 0.819565 0.988983 15.4615 8.26408 0 0 0 -2.14622 -0.0573904 -0.0437074 -10.5216 
790 3 -0.611687 2.61473 16.5272 10.5655 0 0 0 -0.906788 -5.38846 0.558928 -6.67383 
588 1 -0.601996 1.72072 17.446 8.0197 1 0 0 4.7645 -3.3089 -2.38998 -6.83114 
1268 4 0.933504 1.79982 18.1621 9.94794 0 0 0 -0.284197 1.12656 1.54184 -10.7899 
131 1 -0.682814 3.29279 18.3581 5.53907 0 0 0 -4.75763 1.6196 6.74811 -6.55625 
499 2 0.673742 0.0169457 15.9286 5.39668 0 0 0 -0.69928 1.17083 0.15456 -10.6484 
1346 4 0.995238 0.83734 16.5846 13.1885 0 0 0 -1.38411 0.257993 -0.688783 -10.0847 
725 3 -0.679599 0.713252 18.0511 11.8211 0 0 0 1.56412 -0.0620405 -0.678041 -7.15612 
1275 3 -0.66525 1.28602 16.6818 15.1884 0 0 0 0.416835 0.39473 -0.559593 -7.50095 
906 3 -0.579 3.48975 15.5295 12.8459 0 0 0 0.374501 1.85108 -3.84133 -6.54329 
1034 3 -0.597347 2.85607 18.1837 13.3017 0 0 0 -3.26633 -2.05089 1.71378 -7.27974 
2212 8 1.04971 3.04136 17.7497 15.3398 0 0 0 -0.80878 0.293219 -2.19115 -9.42273 
2271 8 0.971095 1.72464 15.0197 16.1688 0 0 0 0.396331 -1.45334 -0.567364 -9.56554 
1142 3 -0.610419 3.54317 15.3688 15.491 0 0 0 4.80394 4.21972 3.18891 -7.43987 
2614 7 -0.628278 3.10045 17.4798 22.9304 0 0 0 -3.0433 1.66598 -3.24213 -7.61895 
2509 8 1.04704 1.84052 17.5261 18.8043 0 0 0 0.37588 0.701961 -0.786382 -9.24786 
2529 7 -0.542878 1.38078 15.6622 23.3343 0 0 0 -0.552194 5.51645 2.07205 -7.24042 
2201 8 1.00158 3.2261 15.6084 22.2844 0 0 0 -2.23563 1.9335 0.299771 -9.46646 
1109 3 -0.605396 2.31627 15.7966 18.125 0 0 0 -0.839795 -0.460371 -1.4228 -7.51489 
2420 7 -0.514213 1.31577 17.9731 20.7598 0 0 0 0.956246 -4.12767 -2.492 -7.16627 
1186 3 -0.578991 1.31409 15.3644 20.7324 0 0 0 -12.0269 2.48387 -3.97994 -7.36623 
2440 7 -0.642976 0.159529 18.0119 23.1355 1 0 0 1.16456 -2.17475 -3.47041 -7.11919 
2566 8 1.02603 1.7099 17.9614 24.2513 0 0 0 -1.59414 -0.122101 1.10186 -9.4122 
2187 7 -0.485109 3.6412 18.3558 19.5372 0 0 0 -2.95058 2.46435 3.29392 -7.11142 
915 3 -0.638024 0.0921123 17.588 17.9659 0 0 0 -0.421314 0.775787 -2.94067 -7.42315 
3096 9 -0.444982 2.97061 15.366 25.6539 0 0 0 -2.10169 -4.8409 1.50485 -7.13645 
2645 9 -0.588466 1.46822 17.0784 28.0558 0 0 0 -3.63281 -2.25836 -1.91295 -7.22111 
2710 9 -0.488481 0.419853 17.0001 25.6027 0 0 0 -4.16076 2.29881 -2.71183 -7.0737 
2729 9 -0.65176 2.71051 17.4733 30.2958 0 0 0 0 0 0 -6.89822 
2663 9 -0.630992 2.8469 18.1745 25.9202 0 0 0 2.78461 -5.91361 1.87665 -7.67562 
3251 10 1.00412 1.06649 16.6499 29.982 0 0 0 0 0 0 -9.81041 
2779 10 1.02277 3.51197 17.7848 28.3458 0 0 0 0 0 0 -9.90656 
2752 10 0.911767 2.40455 14.795 27.7732 0 0 0 -0.614148 0.0275137 1.54313 -9.50308 
3029 9 -0.514372 3.44826 15.6102 32.242 0 0 0 0 0 0 -6.50831 
3106 9 -0.626646 0.521318 16.264 31.8065 0 0 0 0 0 0 -7.39911 
3158 10 0.817158 0.315761 18.197 32.4367 1 0 0 0 0 0 -8.61444 
3266 10 0.893366 3.66156 18.3965 31.6653 0 0 0 0 0 0 -9.1723 
1972 6 1.03527 0.887779 19.2033 -7.0092 0 0 0 0 0 0 -12.0715 
1967 5 -0.58856 2.06963 20.8141 -6.40046 0 0 0 0 0 0 -5.58753 
1979 5 -0.552515 0.528791 19.2897 -4.62812 0 0 0 0 0 0 -5.72969 
1811 5 -0.27813 0.696547 20.3677 -8.59578 0 0 0 0 0 0 -3.71357 
1447 5 -0.444589 3.60011 18.9364 -8.3861 0 0 0 0 0 0 -4.5607 
1658 6 0.984542 2.04379 20.7291 -4.37171 0 0 0 0 0 0 -12.2864 
1619 5 -0.67875 1.99648 20.1254 -2.38092 0 0 0 0 0 0 -5.5361 
103 1 -0.54706 1.47294 20.0967 3.16274 0 0 0 0.608024 -0.64741 4.61238 -6.18577 
1918 6 1.01495 2.04652 21.6476 -1.14409 0 0 0 0 0 0 -12.3915 
1435 5 -0.631775 0.0227726 21.827 -1.77234 0 0 0 0 0 0 -5.63297 
208 1 -0.617291 1.93348 21.6598 0.88405 0 0 0 -8.3616 -1.99603 2.05633 -5.6381 
260 1 -0.611987 2.84475 19.139 0.343303 0 0 0 -3.51473 -6.56602 -2.71717 -5.85239 
407 2 0.669407 3.47299 20.8254 3.6558 0 0 0 4.0558 0.955343 0.214554 -10.645 
280 2 0.695039 0.328289 21.4266 1.97524 0 0 0 -0.939736 0.43408 0.821457 -11.1001 
653 2 0.64973 0.808564 18.6355 0.643205 0 0 0 -1.85697 -0.251699 -1.88897 -10.9679 
263 2 0.708377 1.76102 19.6022 6.78879 1 0 0 -2.26813 2.36883 2.03171 -10.6464 
1396 4 0.877155 0.55619 21.4925 9.11394 0 0 0 -0.870331 -1.24272 -2.22202 -10.3403 
532 1 -0.63621 0.991594 21.122 5.76483 0 0 0 1.1261 2.53796 -4.47375 -6.0958 
879 4 0.833633 3.35112 20.9614 9.82176 0 0 0 -0.0370467 2.87206 -1.47603 -10.3148 
834 3 -0.615708 3.16501 20.3969 7.95674 0 0 0 -0.312265 -2.64531 -0.988738 -6.80341 
1263 3 -0.589197 1.3573 20.1943 10.516 0 0 0 -4.87308 3.33589 -7.57611 -6.89315 
590 1 -0.615614 0.120431 19.8954 8.04538 0 0 0 -0.929189 2.62201 -0.666592 -6.4694 
786 3 -0.532063 3.16398 21.1026 16.751 0 0 0 -5.49173 -0.00338168 -6.69815 -7.01159 
1283 4 0.989637 3.35128 21.8573 14.8495 0 0 0 0.0256508 -1.22435 -1.44999 -9.73689 
912 3 -0.646637 2.7292 21.2148 12.8155 0 0 0 -7.53939 3.08287 -1.20295 -7.42247 
1328 3 -0.512468 1.49464 19.6143 14.9173 1 0 0 0.230075 6.60518 -0.357718 -7.05176 
954 4 1.02262 1.69765 19.6391 12.718 0 0 0 -2.54409 -0.062243 -1.95345 -10.0978 
1214 4 1.00668 1.2484 20.1181 16.9099 0 0 0 0.583645 -0.779945 0.0644077 -9.47577 
2222 7 -0.509107 0.35616 22.0706 17.3931 1 0 0 -1.39229 -4.39494 -3.83032 -6.98537 
749 3 -0.609056 0.00427744 20.7387 13.0319 1 0 0 -1.09482 -1.35671 -3.70138 -7.10556 
759 3 -0.528462 2.59201 18.4918 17.0743 0 0 0 6.08205 7.02391 -6.44542 -7.12297 
2494 7 -0.609484 0.954658 21.4452 21.0358 0 0 0 -3.62371 -3.18896 -5.62299 -7.49693 
2390 8 0.978847 3.03855 21.3594 23.3501 0 0 0 1.49409 -0.389258 0.394291 -9.40134 
2474 7 -0.604625 3.08087 19.9725 21.7274 0 0 0 -0.244631 -7.96416 -1.95715 -7.61052 
2305 8 1.00468 0.694162 19.5736 21.7812 0 0 0 0.737857 -0.105198 -1.64507 -9.70533 
2182 8 1.00396 3.01082 20.2335 19.7266 0 0 0 -0.479067 1.32487 1.62562 -9.43252 
2208 7 -0.605597 1.61574 19.9743 23.8482 0 0 0 7.90711 5.29612 -0.1004 -7.37356 
815 3 -0.603374 1.03545 19.8412 18.9064 0 0 0 -7.91218 -3.17233 1.44605 -7.41425 
1255 3 -0.618711 2.53074 22.1172 19.0072 0 0 0 -2.1431 0.478368 6.50004 -6.76415 
3175 9 -0.658528 3.29895 21.1667 30.7938 0 0 0 0 0 0 -7.70163 
2874 10 0.898225 1.44573 19.8819 30.1297 0 0 0 0 0 0 -9.65536 
2706 9 -0.582487 0.917192 21.6916 29.8939 0 0 0 0 0 0 -7.10981 
2799 10 0.996261 3.28711 20.1495 26.1394 0 0 0 0.0551961 0.455775 0.941726 -9.51916 
3027 9 -0.613714 1.18122 20.5334 26.3997 0 0 0 -2.15118 1.92781 -4.57561 -6.99025 
3183 9 -0.604136 2.41046 19.4682 28.3839 0 0 0 -0.209525 -0.711211 -4.55379 -7.36513 
2754 9 -0.497437 3.10344 21.9574 25.4731 0 0 0 1.88366 -0.816904 -3.06118 -7.03455 
3316 10 0.977945 0.741002 22.0327 27.7945 0 0 0 1.24055 0.98863 0.236738 -9.5448 
3188 10 0.954375 0.585824 18.8805 27.0902 0 0 0 -0.280335 0.79472 -1.03793 -9.51597 
3195 9 -0.601655 0.0547952 18.5728 30.2141 0 0 0 0 0 0 -7.40322 
3164 9 -0.580527 2.70094 22.0727 28.1513 0 0 0 1.10948 3.68672 2.3372 -7.1508 
2835 9 -0.673805 1.9455 19.1551 32.1451 0 0 0 0 0 0 -7.17664 
3134 10 0.927949 2.38429 21.2802 32.5699 0 0 0 0 0 0 -8.99146 
2651 9 -0.591521 0.50088 21.4811 32.7366 0 0 0 0 0 0 -6.79293 
1948 5 -0.59096 1.19814 24.6949 -5.78399 0 0 0 0 0 0 -5.57777 
2100 6 1.00285 0.556774 22.8036 -6.47164 0 0 0 0 0 0 -12.0096 
1538 5 -0.456685 2.10094 23.0305 -7.73334 0 0 0 0 0 0 -4.67977 
1646 5 -0.520746 2.98949 25.5573 -7.62704 0 0 0 0 0 0 -4.83593 
1616 5 -0.602429 3.58057 23.3896 -5.14788 0 0 0 0 0 0 -5.43031 
1490 5 -0.557759 1.13565 22.4738 -4.34833 0 0 0 0 0 0 -5.75985 
1849 6 1.05995 2.26453 24.1403 -3.93767 0 0 0 0 0 0 -12.5995 
2102 5 -0.607719 1.02872 25.5261 -3.3119 0 0 0 0 0 0 -5.5026 
2006 5 -0.60442 0.870874 25.1704 -0.832466 0 0 0 0 0 0 -5.03102 
251 2 0.694005 2.65934 23.2708 1.99601 0 0 0 -1.7394 -0.612815 -0.171658 -10.9591 
1987 6 0.994156 2.91506 25.0396 -1.21695 0 0 0 0 0 0 -12.3285 
1959 5 -0.586713 2.28907 23.2914 -2.00933 0 0 0 0 0 0 -5.23376 
167 1 -0.66459 2.57764 25.0749 1.25145 0 0 0 4.08326 4.08093 -0.610915 -5.61767 
363 1 -0.604294 1.8735 22.8708 3.77062 0 0 0 -4.42001 -2.27848 -2.17479 -6.00688 
303 2 0.717922 0.0619547 23.8976 3.69128 0 0 0 1.85642 1.32182 -1.67024 -11.2917 
478 2 0.683673 2.76122 25.7367 4.01059 0 0 0 0.469492 1.44352 0.83215 -11.0356 
126 2 0.74913 0.583566 25.6407 1.11128 0 0 0 -0.200514 1.21014 2.4497 -11.8609 
432 1 -0.661601 3.28086 24.2668 5.37485 0 0 0 0.310944 -0.768484 -1.66469 -6.09066 
942 3 -0.628909 1.80119 22.7979 10.3181 0 0 0 1.39074 3.0111 4.11664 -6.90888 
1376 3 -0.51611 1.92201 25.6947 10.6591 0 0 0 -5.24405 -6.02524 -1.5681 -6.88472 
944 4 0.901337 2.73846 23.966 8.85159 0 0 0 1.14194 -0.147136 0.430777 -10.7606 
439 1 -0.627049 2.8133 25.7008 7.87159 0 0 0 0.981277 0.380284 3.91329 -6.45489 
1018 4 0.850946 1.11642 25.2134 6.77706 0 0 0 -0.340454 1.71058 -0.722619 -10.7397 
17 1 -0.620015 1.54658 22.8948 7.66422 0 0 0 -2.8062 -2.44586 1.0295 -6.42264 
603 2 0.728172 2.48859 22.4711 5.7437 0 0 0 0.729844 -2.61073 -2.74116 -10.9661 
129 1 -0.548058 0.0311009 25.1057 8.60287 0 0 0 -1.45707 -0.566189 2.12257 -6.44123 
1320 3 -0.703362 1.83158 25.5591 15.4785 0 0 0 -0.174081 -1.13274 -1.65593 -7.69016 
1244 3 -0.629346 1.82504 24.159 13.0413 0 0 0 -0.239996 0.618624 -6.31823 -7.06157 
1145 4 0.961376 2.90593 23.0389 11.9439 0 0 0 0.33182 1.77903 -0.457152 -10.1722 
973 4 0.978784 0.807728 25.6733 13.7439 0 0 0 0.525821 1.29145 -0.288291 -9.68399 
1398 3 -0.611258 1.58764 22.645 15.1793 0 0 0 0.516391 -0.202414 0.234702 -7.36817 
2422 8 1.01667 1.5057 23.964 16.7221 0 0 0 0.549291 -2.23397 0.185995 -9.37384 
1337 4 1.00283 0.326993 22.6134 13.6907 1 0 0 -1.1349 0.675415 -1.11218 -9.75381 
843 4 0.914272 3.54946 25.2246 14.5372 0 0 0 -2.16272 -0.556218 0.864102 -9.91388 
2862 9 -0.571569 1.31489 25.172 24.1293 0 0 0 2.15415 1.34622 4.20129 -7.11882 
1324 3 -0.593949 2.55672 24.7108 18.1978 0 0 0 -1.03928 -2.53622 1.95537 -7.53658 
2512 8 1.0186 2.38561 23.7131 19.945 0 0 0 -1.07335 -0.612069 -1.91306 -9.57852 
2586 8 1.03982 2.72677 24.6378 22.9859 0 0 0 -0.555654 -1.57378 1.27496 -9.36643 
2144 7 -0.591087 3.29408 22.9387 21.791 0 0 0 4.09816 6.20359 0.806085 -7.54632 
2427 7 -0.508126 1.16384 22.6064 23.4883 0 0 0 -2.20404 1.39414 -4.29125 -7.25696 
2258 7 -0.627031 1.20894 24.4564 21.5238 0 0 0 -1.63949 3.90208 -4.21016 -7.10012 
2199 7 -0.546448 3.25938 25.6128 20.8227 0 0 0 0.103817 -2.07599 -2.16537 -7.15628 
2605 7 -0.566676 0.103205 23.7235 19.4343 0 0 0 -5.11969 -1.95985 2.95386 -7.3107 
2739 9 -0.626855 0.0478294 22.8372 25.9663 1 0 0 4.83738 1.59283 2.06939 -7.61944 
3065 10 0.948166 2.23422 23.2167 30.1036 0 0 0 0 0 0 -9.69897 
3294 9 -0.541702 2.39952 24.654 27.7811 0 0 0 0 0 0 -7.46094 
2938 10 0.955647 0.944115 24.6594 25.9706 0 0 0 -0.0900246 -1.10284 -0.0900703 -9.19615 
3318 9 -0.637497 0.917244 24.5699 30.415 0 0 0 0 0 0 -7.48745 
3279 9 -0.571378 3.57693 24.5279 25.3318 0 0 0 -2.8835 3.35952 5.00463 -7.30732 
3222 9 -0.594054 2.39215 23.4033 32.4246 0 0 0 0 0 0 -7.00369 
3257 10 0.90392 0.341156 23.9244 32.3636 1 0 0 0 0 0 -9.32651 
1464 6 0.985447 1.82041 28.8053 -5.30082 0 0 0 0 0 0 -12.3012 
2080 5 -0.517388 2.03531 27.8845 -6.97495 0 0 0 0 0 0 -5.25211 
1474 5 -0.552918 0.256098 27.2388 -5.26244 0 0 0 0 0 0 -5.67341 
1722 6 0.948203 1.08204 26.096 -7.20737 0 0 0 0 0 0 -11.0375 
2078 5 -0.521677 3.53635 26.4552 -5.07638 0 0 0 0 0 0 -5.67073 
2024 5 -0.608042 2.03481 28.1761 -3.27404 0 0 0 0 0 0 -5.87589 
1434 5 -0.592627 0.527157 27.7289 -0.180191 0 0 0 0 0 0 -5.73602 
531 2 0.668708 1.54616 28.6188 3.04057 0 -1 0 -0.104265 -1.44395 -0.350006 -10.8871 
2028 5 -0.634566 2.98635 26.9347 -0.88299 0 0 0 0 0 0 -5.35196 
1677 6 1.01906 0.654032 27.1409 -2.18933 0 0 0 0 0 0 -12.7844 
1518 6 0.937915 2.4312 28.8105 -0.143219 0 0 0 0 0 0 -12.1831 
656 1 -0.710483 3.10246 28.3996 1.72376 0 -1 0 -2.85842 3.01352 2.41682 -5.91576 
5 1 -0.637617 0.838214 25.8946 3.15739 0 0 0 -2.74957 -1.28616 1.75408 -6.18649 
497 2 0.731356 2.91183 27.7346 7.99943 0 0 0 -1.17961 -0.881998 0.256484 -10.907 
509 2 0.673161 0.623081 27.9175 5.76937 0 0 0 1.10227 -0.50298 1.43978 -10.5897 
689 1 -0.628731 2.39127 27.6019 4.79342 0 0 0 -2.37365 -1.71725 1.68242 -6.19153 
1044 3 -0.631076 2.04454 28.3721 9.98017 0 -1 0 -4.02745 -6.92395 -0.728614 -6.86419 