ITEM: TIMESTEP
1170000
ITEM: NUMBER OF ATOMS
3344
ITEM: BOX BOUNDS pp pp ff
0.0000000000000000e+00 2.9557435123415221e+01
0.0000000000000000e+00 2.9555532047484267e+01
-8.8921683279491504e+00 4.4289169250706017e+01
ITEM: ATOMS id type q x y z ix iy iz vx vy vz c_eng 
1802 6 0.970141 1.72313 2.50084 -5.82381 0 0 0 0 0 0 -11.9932 
1748 5 -0.55313 2.14134 1.02002 -7.10683 0 0 0 0 0 0 -5.45411 
2036 6 0.848246 0.0809142 0.962796 -7.73073 0 0 0 0 0 0 -10.0969 
1735 5 -0.638376 0.00587935 2.79069 -7.00765 0 0 0 0 0 0 -5.72269 
1835 5 -0.588835 1.86084 1.03916 -4.37975 0 0 0 0 0 0 -5.21252 
1553 6 1.04641 0.842659 0.869209 -2.65107 0 0 0 0 0 0 -12.5107 
1851 5 -0.549682 2.86832 2.15017 -2.36357 0 0 0 0 0 0 -4.96977 
1662 5 -0.692154 1.36406 0.727232 -0.805768 0 0 0 0 0 0 -5.19706 
1877 5 -0.491616 1.02674 3.48179 -1.02956 0 0 0 0 0 0 -5.74376 
1879 6 0.935259 2.7335 2.50462 -0.383048 0 0 0 0 0 0 -12.1197 
111 1 -0.671193 0.482788 2.36483 2.43869 1 0 0 -0.514301 -5.78459 1.92995 -6.24713 
565 2 0.622931 0.265898 1.11351 0.76124 1 0 0 1.54062 -1.50291 1.36001 -10.5655 
507 2 0.671627 2.38957 2.22108 2.81761 0 0 0 1.0736 -0.126944 -1.82817 -10.9052 
248 1 -0.629635 3.0662 0.576451 4.06924 0 0 0 4.92873 -1.97458 -9.80884 -6.32355 
122 1 -0.591226 1.70684 3.24428 5.47709 0 0 0 7.17823 2.31813 1.90041 -6.24524 
430 1 -0.562125 1.5592 1.35364 9.98304 0 0 0 -0.423661 -1.31567 -6.98215 -6.88104 
367 2 0.707928 1.50075 3.19392 7.65598 0 0 0 0.611517 0.0860857 -1.86705 -10.5653 
484 1 -0.64629 0.70159 1.223 7.30286 1 0 0 3.79536 -0.195076 0.0299264 -5.94805 
567 2 0.705947 1.81141 1.13516 5.67555 0 0 0 2.69667 -2.15949 -0.694072 -10.922 
1422 4 0.962151 3.34457 3.15236 10.6 0 0 0 0.393752 -0.969421 -3.32954 -10.5959 
1098 4 0.925256 1.27089 1.3637 12.3699 0 0 0 -1.94231 0.461186 -0.380511 -9.93507 
1143 3 -0.637926 2.31037 3.37691 15.6457 0 0 0 6.14983 5.35425 0.344763 -7.57452 
1117 4 0.944631 3.53944 3.48836 13.852 0 0 0 -0.37919 0.563478 -1.40011 -9.89701 
1121 3 -0.490343 1.18948 0.682982 14.7791 0 0 0 1.5745 1.78112 -6.27741 -7.05227 
1271 3 -0.632438 2.19475 3.12901 12.2584 0 0 0 1.70768 -4.61603 0.0184404 -7.24317 
1175 4 1.00091 2.70225 1.15586 15.8151 0 0 0 -0.991659 -0.670979 1.04346 -9.5596 
1339 3 -0.58445 2.85387 0.327741 12.3061 0 0 0 3.10121 3.72239 -0.740762 -6.96268 
840 3 -0.586574 0.132453 3.07267 13.9486 1 0 0 2.37432 -3.26256 -4.03858 -6.94891 
1173 3 -0.559289 1.31428 3.20776 20.5108 0 0 0 -3.92704 3.41509 4.89493 -7.48935 
2397 7 -0.578909 0.256636 0.639192 20.9139 1 0 0 1.45815 1.4062 -6.65217 -6.71293 
2296 7 -0.576829 1.1309 2.15701 22.9519 0 0 0 -0.319337 7.62649 -1.58848 -6.952 
2507 7 -0.638456 3.36671 1.00048 22.9095 0 0 0 -4.97683 -1.48989 2.02768 -7.3121 
2398 8 1.02173 2.09938 1.17398 21.2994 0 1 0 -0.908812 2.40471 -0.0919563 -9.6125 
2500 8 1.00246 0.740507 2.70842 18.5759 1 0 0 1.68749 1.663 0.601175 -9.57502 
1147 3 -0.538853 2.35811 1.63947 17.7139 0 0 0 -1.13431 -2.05867 -1.34353 -7.24511 
958 3 -0.593221 2.54021 0.0132973 19.6707 0 0 0 6.7355 -1.97009 2.29602 -7.40384 
3018 10 1.04922 1.14375 1.65001 27.617 0 0 0 1.23046 0.463341 0.0804933 -9.77936 
3067 9 -0.676901 3.00626 1.46188 30.3488 0 0 0 0 0 0 -7.00249 
3041 9 -0.513573 1.48308 3.22497 28.6783 0 0 0 0 0 0 -6.69587 
3191 9 -0.631978 2.02028 3.14328 25.7535 0 0 0 0.0985674 1.31478 -2.33325 -7.7605 
2951 9 -0.605607 0.555934 0.964169 25.8801 0 0 0 -2.71381 4.22915 -4.58855 -7.31304 
3143 9 -0.488151 0.431155 0.959098 29.5551 1 0 0 0 0 0 -6.52514 
3095 10 0.98445 1.6265 2.89959 30.8277 0 0 0 0 0 0 -9.85181 
2814 9 -0.633374 3.59072 2.06012 27.5464 0 0 0 -4.28135 -1.50533 -0.800446 -7.36299 
2309 8 1.005 2.01889 1.39665 24.5174 0 0 0 -1.07419 1.4056 -0.919098 -9.46456 
3190 9 -0.491662 0.786142 1.77343 32.0981 1 0 0 0 0 0 -6.09712 
1684 6 0.747832 0.444927 4.47951 -7.87932 0 0 0 0 0 0 -9.57785 
1477 6 0.980505 3.45782 7.11968 -5.47067 0 0 0 0 0 0 -12.2235 
1857 5 -0.51585 2.03032 5.78711 -5.97954 0 0 0 0 0 0 -5.3393 
1590 6 1.07111 0.508213 5.42575 -4.74455 0 0 0 0 0 0 -12.1328 
1975 5 -0.439477 2.4343 3.7883 -7.65315 0 0 0 0 0 0 -5.01398 
1821 6 0.993038 3.36679 4.02919 -3.5146 0 0 0 0 0 0 -12.2895 
1825 5 -0.555778 1.50744 3.72196 -4.38085 0 0 0 0 0 0 -5.77231 
1909 5 -0.636439 0.0620618 7.24429 -4.24721 0 0 0 0 0 0 -5.44804 
1818 5 -0.472136 2.15263 5.84286 -2.82165 0 0 0 0 0 0 -5.65032 
339 1 -0.623485 2.62556 4.09897 1.35109 0 0 0 0.875989 -1.00843 3.38091 -5.75659 
1896 6 0.950041 3.05463 5.789 -0.958883 0 0 0 0 0 0 -11.7734 
1641 5 -0.664171 1.11551 5.99699 -0.226154 0 0 0 0 0 0 -5.66475 
1664 6 0.989961 0.000928613 6.49629 -1.72773 0 0 0 0 0 0 -12.4075 
400 2 0.651455 3.13808 5.93063 2.27546 0 0 0 0.202445 -0.733581 -1.64385 -10.5333 
428 2 0.695514 0.572579 4.38902 0.880265 0 0 0 1.10304 0.344223 1.99536 -11.423 
579 1 -0.609673 1.20992 5.49422 3.57888 0 0 0 3.49979 -3.42259 1.79771 -6.23985 
114 2 0.711743 0.296269 3.79044 4.09154 0 0 0 -2.12517 -0.363366 0.348715 -10.9558 
202 2 0.690871 0.430544 5.78133 6.5233 1 0 0 0.271839 0.0271964 0.454609 -10.7022 
142 1 -0.645759 2.60206 5.51064 6.74904 0 0 0 -1.3882 -4.35869 0.528259 -6.42298 
980 4 0.906254 1.6543 5.62889 9.58325 0 0 0 -0.731602 -0.787597 -1.52378 -10.6561 
310 2 0.748634 3.46302 4.67192 5.05937 0 0 0 0.357362 0.328036 -0.451092 -11.3749 
55 1 -0.711004 2.56335 4.06108 9.02341 0 0 0 -1.58767 0.860886 1.3967 -6.74948 
1264 3 -0.591015 0.0482236 4.24312 10.5769 1 0 0 -0.0524277 -0.478907 -0.350603 -6.95811 
580 1 -0.62504 3.72684 6.6034 4.4657 0 0 0 6.04819 7.59603 -1.12604 -6.3017 
2393 8 1.03443 0.548205 4.0549 15.6806 0 0 0 0.695424 -2.47663 -2.05804 -9.79095 
891 3 -0.492824 0.641475 6.54478 16.3926 0 0 0 -6.83035 2.60597 1.97951 -6.67647 
37 1 -0.591464 1.86461 5.99803 11.4335 0 0 0 8.18171 -1.10306 1.10331 -6.69511 
1114 3 -0.567473 1.44139 5.48342 14.1965 0 0 0 -3.85513 2.78705 0.325433 -7.01518 
1192 4 1.02332 2.81126 6.83591 14.8727 0 0 0 2.59046 -1.87676 -1.08567 -9.88683 
762 3 -0.640756 3.34342 5.94277 16.6254 0 0 0 -8.59212 -1.58682 4.00249 -7.4604 
886 4 1.01145 0.465753 4.55168 12.4636 0 0 0 2.65644 0.842185 0.126632 -10.1844 
2304 8 1.02912 0.508408 4.79952 21.679 1 0 0 -0.539774 0.102729 0.193719 -9.23617 
2521 7 -0.513008 2.31697 5.85403 20.6878 0 0 0 -3.20316 -0.0299072 6.81813 -7.18563 
2202 7 -0.505399 1.9742 4.67468 23.1532 0 0 0 -0.383742 3.08982 0.901744 -7.29879 
937 3 -0.659561 2.59935 4.15602 18.4623 0 0 0 0.830716 1.34033 6.30816 -6.87791 
2551 8 0.976862 1.68886 5.99861 18.2971 0 0 0 0.86813 1.15656 0.862393 -9.93817 
2618 8 1.03588 3.38075 4.10268 20.1781 0 0 0 1.02152 -0.390573 -0.304785 -9.654 
2151 7 -0.616965 0.12837 4.4615 18.0772 1 0 0 -5.57562 1.90363 -1.3735 -7.36661 
2900 10 0.97836 0.948047 4.58946 24.9798 0 0 0 1.04484 0.612315 -0.521885 -9.36467 
3034 9 -0.623575 2.77039 4.6157 30.302 0 0 0 0 0 0 -7.03145 
3146 10 0.967987 0.66753 7.28717 26.7985 0 0 0 0.764439 -0.231498 2.24585 -9.43261 
3073 9 -0.527346 1.63303 5.52282 27.5064 0 0 0 2.63592 -0.961616 -5.36191 -6.90229 
2693 10 0.985659 3.09389 6.33208 28.737 0 0 0 0.0264833 0.155002 0.35361 -9.82688 
3125 9 -0.602533 0.142101 6.06431 29.6391 0 0 0 0 0 0 -7.48779 
3184 9 -0.473909 1.22734 6.74346 24.6713 1 0 0 -0.622845 6.075 2.06021 -7.15942 
3344 9 -0.52497 3.60067 5.63526 25.4114 0 0 0 -4.04633 -4.48511 0.227806 -7.25154 
3093 9 -0.582469 0.670307 4.44366 31.9083 0 0 0 0 0 0 -6.62721 
3136 9 -0.596549 0.779501 7.2607 32.4875 0 0 0 0 0 0 -6.48834 
2857 9 -0.539477 3.60735 6.06165 32.4556 0 0 0 0 0 0 -6.36078 
2880 10 0.941425 1.54389 6.02867 31.2853 0 0 0 0 0 0 -9.77278 
1668 5 -0.477068 1.63937 10.6752 -7.73594 0 0 0 0 0 0 -4.67461 
1710 6 0.979737 3.37924 9.89201 -7.55904 0 0 0 0 0 0 -11.286 
1995 5 -0.560705 1.79025 8.27694 -5.98123 0 0 0 0 0 0 -5.38824 
1930 6 0.872292 0.671348 7.74577 -7.51036 0 0 0 0 0 0 -10.9534 
1697 5 -0.557785 3.30764 10.3965 -5.66731 0 0 0 0 0 0 -5.19326 
1842 5 -0.401099 2.53307 8.15883 -8.52032 0 0 0 0 0 0 -4.39309 
2066 6 1.02594 1.28823 8.79199 -4.10193 0 0 0 0 0 0 -12.2924 
1595 5 -0.545202 3.06303 8.26809 -3.57222 0 0 0 0 0 0 -5.39045 
2025 5 -0.588931 1.63193 10.6272 -3.32851 0 0 0 0 0 0 -5.50899 
1628 5 -0.638013 3.03456 10.408 -0.960219 0 0 0 0 0 0 -5.69408 
1920 5 -0.580786 0.902289 8.32679 -2.0179 0 0 0 0 0 0 -5.83881 
1504 6 0.939519 1.04968 10.0831 -1.02812 0 0 0 0 0 0 -11.9247 
380 2 0.665386 0.587671 7.79466 0.834347 0 0 0 -1.57046 -0.23025 -1.12159 -11.0058 
423 1 -0.635074 0.724173 9.87889 0.983658 0 0 0 0.196019 0.411906 0.573661 -5.90929 
213 2 0.678103 0.0754853 10.0241 2.84469 0 0 0 -0.582586 -0.157906 0.445528 -10.7488 
663 1 -0.573407 2.58575 7.76649 1.3994 0 0 0 3.66717 0.0720127 -0.873722 -6.11867 
530 2 0.686187 3.43845 9.73612 1.07657 0 0 0 -0.124372 1.19029 -0.52212 -11.3739 
345 1 -0.623941 2.02868 9.51549 3.67118 0 0 0 -1.84162 -2.12887 3.85265 -6.37968 
137 2 0.658622 1.4418 7.47005 3.95569 0 0 0 -0.254067 -1.08091 1.55774 -10.4714 
1362 4 0.871001 0.0522071 8.07756 8.84071 0 0 0 1.14077 0.517947 0.406107 -10.7979 
1085 3 -0.624844 0.819322 9.89532 8.06653 0 0 0 -2.81975 2.12263 -1.70918 -6.89557 
100 1 -0.664743 0.891856 7.8977 5.86273 0 0 0 -8.04616 1.81211 9.09677 -6.76578 
614 2 0.724705 1.23618 10.0206 5.98822 0 0 0 -0.993639 1.5169 0.921448 -11.0797 
1006 4 0.903951 2.67534 9.85981 9.03654 0 0 0 -0.370147 -1.51261 2.27803 -10.8823 
577 1 -0.649453 3.54126 9.29897 6.19612 0 0 0 -0.244152 3.91972 -1.7417 -6.57497 
480 1 -0.654413 2.45523 7.56991 8.95822 0 0 0 -3.60143 -0.446701 -5.23035 -6.94469 
1138 3 -0.620078 2.47905 9.50184 10.9405 0 0 0 4.95668 -0.618913 -0.164188 -6.73542 
581 2 0.658803 2.92223 7.51116 6.79331 0 0 0 -0.671687 -1.54295 -1.29199 -10.5788 
474 1 -0.610967 3.09314 7.90396 13.1531 0 0 0 6.5895 -0.766473 0.569552 -6.99675 
993 3 -0.602559 2.24924 8.43711 15.766 0 0 0 -2.45368 0.689679 -0.0800084 -7.11647 
1115 3 -0.593664 0.727891 10.1841 16.8889 1 0 0 5.52477 -0.60447 5.38106 -7.32233 
800 4 1.03537 0.970175 9.82764 14.846 0 0 0 0.664072 1.0356 0.465622 -10.0345 
1334 3 -0.631997 1.42712 10.6424 13.0179 1 0 0 1.82524 1.04258 3.21084 -7.01263 
922 4 0.993864 1.84394 7.85316 11.7031 0 0 0 0.669593 -0.409498 -1.39237 -10.2928 
1321 3 -0.410055 2.99379 10.9611 15.3215 0 0 0 -1.64216 -2.51599 3.43308 -6.69127 
780 4 1.02521 3.21665 10.9825 12.4208 0 0 0 1.24912 -1.05773 2.17076 -10.4232 
1291 3 -0.574673 0.429185 8.25336 13.5838 0 0 0 1.33546 1.41095 4.05442 -7.18272 
1024 4 0.920665 0.102328 10.4597 11.4814 1 0 0 -2.23937 1.20212 -0.837576 -10.3123 
2549 8 1.05551 2.49431 8.33201 23.1133 0 0 0 -1.88141 -0.652392 -1.28146 -9.02458 
1216 3 -0.660997 0.676094 7.84462 18.4931 0 0 0 -4.06736 -2.4064 1.09883 -7.23802 
2205 7 -0.584021 2.72476 8.7231 20.9493 0 0 0 0.504491 1.17292 -0.0353456 -7.11903 
2177 7 -0.553596 0.757079 7.61188 22.2165 1 0 0 -5.48953 0.383967 1.54375 -6.8905 
2443 7 -0.458645 1.35132 9.9019 23.2598 1 0 0 0.280029 4.31495 1.11634 -6.63074 
2270 7 -0.580962 0.416137 9.82642 20.0202 1 0 0 0.81876 1.52776 -4.24337 -7.06238 
2417 8 1.05044 0.187175 7.94422 20.4183 0 0 0 -2.46445 0.440581 0.415029 -9.49601 
2256 8 0.98242 2.07175 10.6427 20.7013 0 0 0 -0.544162 -2.44126 0.257653 -9.44215 
924 3 -0.611403 2.44698 10.9786 18.6372 0 0 0 1.98093 -0.0819927 -0.281471 -7.58475 
2306 7 -0.548485 3.39455 10.9469 22.2187 0 0 0 8.33355 3.89962 1.40685 -7.16797 
2178 8 0.991986 2.26164 8.99402 17.7407 0 0 0 -2.44248 -0.0554128 -0.723173 -9.90189 
1210 3 -0.611695 3.18564 7.43754 18.6909 0 0 0 -2.77581 8.59096 -4.00765 -7.04036 
3121 9 -0.634531 0.152476 8.93217 30.2329 1 0 0 0 0 0 -7.37357 
3058 9 -0.506317 3.44828 8.52577 24.7628 0 0 0 1.46811 2.55949 -4.54111 -7.10616 
2913 9 -0.580611 3.1072 10.5768 28.2927 0 0 0 3.87492 -0.135087 4.58237 -7.44169 
3005 9 -0.577896 2.01096 10.3296 25.9251 0 0 0 4.78687 0.738091 4.84276 -7.02096 
3211 9 -0.665986 2.11602 8.10188 27.6335 0 0 0 8.5461 -4.20909 -0.403908 -7.30835 
2926 10 1.0271 3.47221 9.11532 26.5911 0 0 0 -0.116223 -0.913897 -0.804662 -9.44527 
3282 10 1.00316 1.92465 9.2669 29.2311 0 0 0 0 0 0 -9.78756 
2811 9 -0.67724 2.5485 7.4998 30.2657 0 0 0 0 0 0 -7.48477 
3241 9 -0.578769 2.09748 10.6576 30.7246 0 0 0 0 0 0 -7.12077 
2844 9 -0.51507 2.70508 9.05433 32.7021 0 0 0 0 0 0 -6.11147 
2720 10 0.961215 0.585837 9.23192 32.092 0 0 0 0 0 0 -9.89287 
2980 9 -0.557569 0.970213 10.9076 33.3026 0 0 0 0 0 0 -6.30075 
1493 5 -0.589896 2.35132 13.027 -5.98123 0 0 0 0 0 0 -5.52949 
1511 6 0.956926 1.09704 12.4766 -7.27982 0 0 0 0 0 0 -10.8258 
1536 6 1.01966 3.55669 14.565 -5.53605 0 0 0 0 0 0 -12.4367 
1840 5 -0.658332 0.144875 14.3129 -7.28475 0 0 0 0 0 0 -5.36276 
1539 5 -0.586054 0.62691 13.0304 -4.04772 0 0 0 0 0 0 -5.45173 
1484 6 1.06906 2.90977 11.6967 -4.45009 0 0 0 0 0 0 -12.3603 
1939 5 -0.575151 2.99558 12.8633 -2.9592 0 0 0 0 0 0 -5.08903 
1437 6 0.995609 0.700726 13.5905 -2.07916 0 0 0 0 0 0 -12.502 
2018 6 1.02497 3.42401 12.3289 -1.12582 0 0 0 0 0 0 -12.5729 
1764 5 -0.712069 1.58033 13.0111 -0.521059 0 0 0 0 0 0 -5.3466 
586 1 -0.635546 1.98417 13.4347 3.15977 0 0 0 2.592 -10.1238 -0.636469 -6.08591 
146 2 0.660395 1.09229 12.2368 1.22086 1 0 0 -0.0216237 -1.23012 -1.14338 -10.9017 
398 2 0.701728 2.83295 11.4346 3.5639 0 0 0 -2.31564 0.348069 -3.44821 -10.837 
697 1 -0.684505 3.11199 11.7026 1.49887 0 0 0 -1.93671 4.575 0.0121687 -6.04443 
665 2 0.729345 0.244056 12.6644 4.27919 1 0 0 0.368369 0.853012 -3.14496 -11.1412 
807 4 0.890762 1.04991 12.4775 9.2703 0 0 0 1.8113 -0.18662 -1.80177 -10.5986 
218 1 -0.594828 0.270422 13.0384 7.61886 0 0 0 4.97364 4.10246 -2.11689 -6.56302 
416 2 0.720597 2.17685 13.2355 6.72194 0 0 0 1.32703 0.56495 -1.85412 -10.9395 
572 1 -0.645768 1.89614 11.7754 5.30074 0 0 0 0.21959 -2.85814 -2.53679 -6.141 
690 1 -0.685229 2.92225 11.7194 8.24802 0 0 0 1.86071 -1.51075 3.47679 -6.58585 
491 1 -0.642287 0.792062 14.566 10.0811 0 0 0 -8.5141 3.76112 4.85691 -6.83905 
39 1 -0.629516 3.20443 14.4552 8.12344 0 0 0 -5.93249 0.698829 1.6215 -6.80365 
956 3 -0.65383 2.31608 12.3575 10.773 0 0 0 -8.34495 -2.7114 -1.20836 -6.81127 
733 4 0.977057 0.991816 12.9447 13.6281 0 0 0 0.127748 0.507574 -1.10524 -9.86905 
789 3 -0.545423 1.38406 13.2122 15.615 0 0 0 -2.43341 -3.13741 -1.68675 -7.30722 
2408 8 1.01616 1.02774 12.179 17.367 0 0 0 -2.8786 -1.10939 1.79641 -9.56373 
905 3 -0.575542 3.05132 12.8011 13.3043 0 0 0 -5.7516 3.0831 -4.51933 -6.91071 
832 4 0.927927 2.38685 14.4126 11.2501 0 0 0 -0.961537 1.37654 -0.682695 -10.5553 
2197 7 -0.490001 0.0559167 11.7195 21.5965 1 0 0 -0.175371 6.3051 -2.2896 -6.91096 
1060 3 -0.53179 2.37974 12.8515 20.8147 0 0 0 -0.602025 0.957238 -0.443752 -7.09634 
2260 8 0.939003 2.59698 14.3317 19.5019 0 0 0 1.46461 0.244176 0.755635 -9.5265 
2506 8 0.951348 0.88668 13.3307 22.0858 1 0 0 0.520873 -1.97235 1.50114 -9.36133 
2242 7 -0.563932 2.5821 13.3397 23.5988 0 0 0 2.15709 -6.91372 9.14042 -7.14513 
1274 3 -0.583678 0.568591 13.1545 19.0485 0 0 0 3.60587 6.73389 -8.08865 -7.3388 
2570 8 1.04198 2.40458 11.3617 24.0806 0 0 0 2.7632 -1.34566 -0.0905155 -9.49574 
1235 3 -0.617442 2.96973 13.3815 17.7351 0 0 0 2.50719 -1.43948 -6.80083 -7.46381 
2709 9 -0.628328 0.811798 12.2728 28.7617 0 0 0 3.65716 1.77776 -1.71801 -7.60926 
2876 9 -0.585247 2.33879 12.9151 26.4207 0 0 0 1.8663 -7.96336 -1.1628 -7.26726 
2757 10 1.00613 1.26013 14.4684 24.9217 0 0 0 0.524546 0.986445 -0.39054 -9.29629 
2727 10 1.03654 0.929468 11.5387 26.9381 0 0 0 -1.50594 -0.220486 0.760151 -9.56952 
2700 10 0.973604 2.68984 12.3773 29.6868 0 0 0 0 0 0 -9.75579 
3056 9 -0.52666 0.407803 14.4944 26.912 0 0 0 0.460689 -4.47501 0.468037 -7.16849 
3062 9 -0.635215 2.19389 14.4817 29.8338 0 0 0 0 0 0 -7.7387 
2752 10 0.912491 2.33745 14.7362 27.709 0 0 0 -2.33889 -1.02654 0.836042 -9.59287 
2453 7 -0.555375 0.541422 12.1815 24.3503 0 0 0 -0.0796918 3.86389 -1.42607 -7.35494 
2979 9 -0.588446 3.20716 12.9328 33.1985 0 0 0 0 0 0 -6.37345 
2755 9 -0.603783 0.960979 12.9761 31.4267 0 0 0 0 0 0 -6.94837 
3083 10 0.922161 2.04029 14.2912 32.4858 0 0 0 0 0 0 -9.17823 
3194 9 -0.515019 0.330623 14.1635 33.6452 0 0 0 0 0 0 -5.95741 
3234 10 0.985623 2.80935 11.0878 32.5951 0 0 0 0 0 0 -9.47041 
1794 5 -0.49845 0.0641429 16.4941 -5.53735 0 0 0 0 0 0 -5.97668 
1660 5 -0.568051 2.53116 15.5541 -7.05451 0 0 0 0 0 0 -5.30628 
1494 5 -0.515677 1.24729 17.7273 -8.24278 0 0 0 0 0 0 -4.64948 
1541 6 0.890956 0.928072 15.8984 -8.1644 0 0 0 0 0 0 -10.4033 
1868 6 0.968099 3.57603 17.286 -7.26231 0 0 0 0 0 0 -11.9509 
1429 5 -0.608853 2.46627 18.2207 -5.89243 0 0 0 0 0 0 -5.46899 
1846 5 -0.559946 2.20506 15.3189 -4.18135 0 0 0 0 0 0 -5.91685 
2035 6 0.957996 1.45075 17.3005 -4.38656 0 0 0 0 0 0 -12.3315 
1513 5 -0.685538 3.21621 17.5726 -3.29097 0 0 0 0 0 0 -5.39454 
1867 6 0.980549 3.45754 15.6144 -2.53379 0 0 0 0 0 0 -12.3035 
1890 5 -0.668274 0.509062 17.8608 -2.34134 0 0 0 0 0 0 -5.40184 
1813 5 -0.636168 3.21701 16.8692 -0.757449 0 0 0 0 0 0 -5.48548 
1978 5 -0.595612 0.981353 15.4498 -1.62043 0 0 0 0 0 0 -5.48553 
311 2 0.593305 2.27905 15.0874 -0.0688037 0 0 0 -0.144721 -0.0491847 -1.04135 -10.5771 
77 1 -0.670541 1.63032 17.3628 2.23981 0 0 0 -2.91408 2.7123 3.23876 -5.9646 
2050 6 0.927639 2.30883 18.3196 -1.79829 0 0 0 0 0 0 -11.8911 
147 2 0.674391 1.86165 18.1571 4.06544 0 0 0 0.198786 1.98944 -0.107854 -10.743 
360 2 0.658018 1.74145 15.3852 2.84957 0 0 0 -1.51419 -0.705656 -0.0475807 -10.494 
466 2 0.676077 3.50873 17.6483 1.34475 0 0 0 -3.99862 0.722516 0.360642 -11.0306 
256 1 -0.628838 3.40555 16.2216 3.94877 0 0 0 -1.12111 -0.226089 1.02207 -6.11084 
609 1 -0.656353 1.67035 15.0921 5.97238 0 0 0 0.500842 -7.24542 -4.61542 -6.37191 
243 2 0.66519 3.18493 16.4882 6.32992 0 0 0 -1.6679 -0.604558 0.698682 -10.7439 
637 1 -0.5926 0.428743 18.0922 5.6871 0 0 0 -5.02545 -1.01002 1.77005 -6.75858 
837 4 0.791653 1.10718 15.5003 8.12602 0 0 0 -2.37072 -0.608139 0.33746 -10.5169 
790 3 -0.61713 2.58378 16.3952 10.5879 0 0 0 -1.21713 -2.09253 2.63561 -6.805 
588 1 -0.601418 1.89988 17.4941 8.02008 1 0 0 -2.45536 1.27477 -6.6494 -6.71277 
1268 4 0.908437 1.82113 18.1655 9.91624 0 0 0 1.04504 -0.470771 0.983329 -10.7116 
1346 4 0.99246 0.903311 16.6649 13.1831 0 0 0 1.52464 -0.205122 -0.498473 -9.99994 
725 3 -0.670999 0.531429 18.1255 11.8193 0 0 0 4.69268 2.95978 1.06292 -7.01828 
1275 3 -0.618989 1.29817 16.7397 15.1433 0 0 0 4.47768 -2.97936 0.97295 -7.49412 
906 3 -0.583807 3.4421 15.3707 12.8427 0 0 0 3.30881 -1.62256 -3.26817 -6.42804 
1034 3 -0.648261 2.75557 18.1364 13.1968 0 0 0 2.72013 -1.95565 0.824056 -7.54816 
2212 8 1.02631 3.05293 18.2525 15.1356 0 0 0 -0.628489 0.638254 -1.25211 -9.33061 
2271 8 0.993093 1.82768 15.0693 16.1547 0 0 0 -0.921818 -0.730117 -1.24973 -9.54439 
1142 3 -0.562986 3.67709 15.4836 15.5068 0 0 0 1.90623 6.40797 -3.8041 -7.29956 
876 3 -0.537228 0.0759401 15.1427 17.0366 1 0 0 -2.00489 -3.08534 0.410502 -7.05737 
1136 3 -0.58653 0.964096 14.8045 13.1096 0 0 0 -8.02787 0.122604 -5.91098 -6.83682 
2614 7 -0.616379 2.93771 17.524 22.9624 0 0 0 -4.4388 0.743508 3.62325 -7.74648 
2509 8 1.02968 1.85598 17.5312 18.8334 0 0 0 0.22641 -0.459533 -1.03227 -9.21522 
2529 7 -0.588318 1.34289 15.5009 23.1581 0 0 0 0.97163 -8.00223 4.12356 -7.39651 
2201 8 0.982299 3.19394 15.7079 22.2919 0 0 0 -0.204036 -0.258049 0.572963 -9.47833 
1109 3 -0.575608 2.40677 15.8889 18.0302 0 0 0 2.54733 3.33395 1.85569 -7.26872 
2420 7 -0.495006 1.22809 17.9826 20.737 0 0 0 1.16291 -0.787149 -6.77811 -7.19151 
1186 3 -0.557553 1.26886 15.3449 20.6354 0 0 0 -12.0851 0.782347 -4.48062 -7.195 
2566 8 1.0101 1.58813 17.9932 24.3099 0 0 0 0.799438 1.26835 -0.26145 -9.4425 
915 3 -0.634013 0.0730007 17.6499 17.9319 0 0 0 8.04886 -0.372519 3.87259 -7.46475 
3096 9 -0.47744 2.97051 15.4083 25.6469 0 0 0 1.77712 4.92167 2.47623 -7.3307 
2645 9 -0.59353 1.62462 16.8915 27.9754 0 0 0 6.11084 -0.202768 -0.57048 -7.35299 
2710 9 -0.537144 0.429109 16.9144 25.5399 0 0 0 -4.37265 -0.766092 0.46023 -7.34054 
2729 9 -0.652172 2.70983 17.4714 30.2958 0 0 0 0 0 0 -6.9279 
2663 9 -0.613089 2.90415 18.1919 25.9008 0 0 0 5.74908 0.206634 4.22778 -7.577 
3251 10 0.995173 1.06622 16.6481 29.982 0 0 0 0 0 0 -9.82927 
2779 10 1.03014 3.51109 17.7828 28.3458 0 0 0 0 0 0 -9.89617 
3029 9 -0.514953 3.4474 15.6085 32.242 0 0 0 0 0 0 -6.51453 
3106 9 -0.628079 0.521188 16.2622 31.8065 0 0 0 0 0 0 -7.40691 
3158 10 0.817046 0.315682 18.195 32.4367 1 0 0 0 0 0 -8.61935 
3266 10 0.895136 3.66065 18.3944 31.6653 0 0 0 0 0 0 -9.17934 
1972 6 1.03545 0.887557 19.2012 -7.0092 0 0 0 0 0 0 -12.0832 
1967 5 -0.588657 2.06911 20.8118 -6.40046 0 0 0 0 0 0 -5.58024 
1979 5 -0.552432 0.528659 19.2876 -4.62812 0 0 0 0 0 0 -5.72516 
1811 5 -0.277997 0.696373 20.3655 -8.59578 0 0 0 0 0 0 -3.7111 
1447 5 -0.44444 3.59921 18.9343 -8.3861 0 0 0 0 0 0 -4.55716 
1658 6 0.982981 2.04328 20.7269 -4.37171 0 0 0 0 0 0 -12.2895 
1619 5 -0.677338 1.99598 20.1232 -2.38092 0 0 0 0 0 0 -5.52822 
103 1 -0.55166 1.57945 20.0613 3.17588 0 0 0 -1.41937 2.58673 5.18479 -6.27104 
1918 6 1.05193 2.04601 21.6452 -1.14409 0 0 0 0 0 0 -12.5533 
1435 5 -0.633657 0.0227669 21.8246 -1.77234 0 0 0 0 0 0 -5.64074 
208 1 -0.600732 2.08974 21.7786 0.773485 0 0 0 -1.48242 -0.899021 -4.78595 -5.50686 
260 1 -0.591747 2.9166 19.2839 0.275685 0 0 0 -1.43931 -7.08392 1.13356 -5.8689 
407 2 0.668004 3.43116 20.795 3.83255 0 0 0 2.16509 -0.322761 -0.629159 -10.5777 
280 2 0.69875 0.377463 21.4748 1.98326 0 0 0 -0.957182 -0.12302 1.3429 -11.1791 
653 2 0.638866 0.822872 18.551 0.680136 0 0 0 -2.45785 0.874162 -1.50146 -10.7807 
263 2 0.719252 1.76865 19.6323 6.81725 1 0 0 -0.106625 1.99533 2.80422 -10.8261 
1396 4 0.869143 0.521037 21.5715 9.25359 0 0 0 -1.8289 -1.36975 -1.01525 -10.3467 
532 1 -0.609392 1.09016 21.2066 5.72251 0 0 0 -1.43746 -1.68661 -0.784662 -6.29566 
879 4 0.846251 3.41338 20.8763 9.76922 0 0 0 -1.29631 0.567664 -1.41264 -10.3961 
834 3 -0.609814 3.28116 20.6431 7.8789 0 0 0 -0.353591 1.83023 -7.01424 -6.71465 
1263 3 -0.624855 1.5233 20.161 10.5145 0 0 0 4.33455 4.05442 -4.36418 -6.84443 
131 1 -0.646075 3.20215 18.6307 5.57212 0 0 0 2.8565 5.38489 -0.109216 -6.58828 
590 1 -0.590894 0.122914 19.9647 8.13234 0 0 0 -0.281731 -1.16278 4.47948 -6.59891 
786 3 -0.54319 3.05373 21.1332 16.6813 0 0 0 -0.844726 -3.84429 -1.98253 -7.00287 
1283 4 0.998892 3.16397 21.8188 14.77 0 0 0 -1.71543 0.993009 0.0150423 -9.77672 
912 3 -0.677361 2.70595 21.2771 12.8181 0 0 0 -3.25399 8.1762 -3.00261 -7.41574 
1328 3 -0.546006 1.39229 19.7986 14.8981 1 0 0 -0.536359 -5.22414 -1.44327 -7.32071 
954 4 0.989382 1.58266 19.7615 12.5725 0 0 0 -1.15388 0.0355497 -1.27312 -10.1271 
1214 4 1.01647 1.23431 20.1195 16.9344 0 0 0 1.25381 -2.47773 0.0928533 -9.54893 
759 3 -0.507111 2.53038 18.527 17.0244 0 0 0 -3.76017 3.05864 2.69076 -7.06295 
2494 7 -0.635307 0.867744 21.42 21.0084 0 0 0 -3.18236 2.9306 -1.72665 -7.40956 
2390 8 0.995416 2.81247 21.3529 23.2831 0 0 0 2.25058 -1.04007 0.872162 -9.46695 
2474 7 -0.626369 2.89127 19.9947 21.7272 0 0 0 -2.25621 -2.83388 1.9368 -7.41039 
2305 8 1.01416 0.443265 19.6657 21.801 0 0 0 0.386941 -0.0940601 -1.6579 -9.7064 
2182 8 0.993808 2.82718 20.4212 19.841 0 0 0 -0.0890481 0.803747 2.04813 -9.49025 
2208 7 -0.627628 1.59361 19.9209 23.8477 0 0 0 -5.4558 3.27429 2.26455 -7.30656 
815 3 -0.628399 1.07957 19.9306 18.8282 0 0 0 0.192586 -1.81362 -2.15471 -7.34139 
2187 7 -0.461534 3.67962 18.5443 19.5611 0 0 0 4.34393 3.93469 1.56889 -7.17235 
3175 9 -0.660047 3.29812 21.1644 30.7938 0 0 0 0 0 0 -7.7324 
2874 10 0.915981 1.44537 19.8798 30.1297 0 0 0 0 0 0 -9.62885 
2706 9 -0.569682 0.916963 21.6893 29.8939 0 0 0 0 0 0 -7.098 
2799 10 1.00216 3.26166 20.2249 26.1591 0 0 0 0.75964 -1.63781 0.542572 -9.54867 
3027 9 -0.634275 1.19993 20.4697 26.4114 0 0 0 -1.47747 -3.41555 -4.34497 -7.13539 
3183 9 -0.618506 2.37958 19.4739 28.4997 0 0 0 2.99957 0.283541 1.57377 -7.42145 
3164 9 -0.579621 2.67898 22.1293 28.0589 0 0 0 5.4941 1.86475 -0.983834 -7.29927 
3316 10 0.990913 0.675138 21.9926 27.7361 0 0 0 0.921473 2.3349 0.264268 -9.62144 
3188 10 0.922642 0.583989 18.7786 27.1982 0 0 0 -0.48683 0.908997 -1.03258 -9.55429 
3195 9 -0.618578 0.0547815 18.5707 30.2141 0 0 0 0 0 0 -7.45878 
2754 9 -0.482172 2.97493 22.0259 25.3292 0 0 0 -3.79599 3.17135 3.15733 -6.93259 
2341 8 1.02549 0.0390185 21.2081 24.7423 1 0 0 -1.07759 1.66337 1.93091 -9.60706 
2835 9 -0.674105 1.94501 19.1531 32.1451 0 0 0 0 0 0 -7.20584 
3134 10 0.927241 2.3837 21.2779 32.5699 0 0 0 0 0 0 -8.98421 
2651 9 -0.591491 0.500755 21.4788 32.7366 0 0 0 0 0 0 -6.79423 
1948 5 -0.591022 1.19784 24.6922 -5.78399 0 0 0 0 0 0 -5.56934 
2100 6 1.00302 0.556635 22.8011 -6.47164 0 0 0 0 0 0 -12.0251 
1538 5 -0.456728 2.10041 23.028 -7.73334 0 0 0 0 0 0 -4.67527 
1646 5 -0.520795 2.98874 25.5545 -7.62704 0 0 0 0 0 0 -4.83131 
1616 5 -0.602622 3.57967 23.387 -5.14788 0 0 0 0 0 0 -5.4231 
1490 5 -0.558449 1.13537 22.4714 -4.34833 0 0 0 0 0 0 -5.75214 
1849 6 1.059 2.26397 24.1376 -3.93767 0 0 0 0 0 0 -12.6111 
2102 5 -0.607687 1.02846 25.5234 -3.3119 0 0 0 0 0 0 -5.48836 
2006 5 -0.602875 0.870657 25.1677 -0.832466 0 0 0 0 0 0 -4.99526 
251 2 0.705238 2.81442 23.193 1.99155 0 0 0 -0.839643 -2.2231 0.0339671 -10.86 
1987 6 1.00671 2.91433 25.0369 -1.21695 0 0 0 0 0 0 -12.37 
1959 5 -0.585418 2.2885 23.2889 -2.00933 0 0 0 0 0 0 -5.25655 
167 1 -0.620635 2.60314 24.8997 1.13047 0 0 0 -0.0171978 7.96002 1.46463 -5.81739 
363 1 -0.618079 1.68882 23.0935 3.6639 0 0 0 3.25682 0.285537 1.8123 -6.167 
478 2 0.67399 2.60243 25.6881 3.79267 0 0 0 -0.929228 0.178771 0.0271588 -10.9164 
126 2 0.71213 0.491823 25.7798 1.04298 0 0 0 -0.246017 1.35943 0.38012 -11.6073 
432 1 -0.650737 3.24367 24.4861 5.41626 0 0 0 -1.92133 -6.77514 -3.98707 -6.04609 
942 3 -0.627397 1.72632 22.8111 10.3705 0 0 0 -2.46437 2.16666 6.02071 -6.89153 
1376 3 -0.487089 1.94315 25.5866 10.5708 0 0 0 -3.78825 -2.64764 10.213 -6.86185 
944 4 0.914053 2.89598 23.854 8.9558 0 0 0 0.939814 0.138576 -0.753251 -10.9034 
439 1 -0.640363 2.91179 25.6837 7.96219 0 0 0 -4.91178 -0.761499 1.74576 -6.43094 
1018 4 0.901679 1.1396 25.2675 7.06621 0 0 0 -0.602551 0.879631 0.582949 -10.8863 
17 1 -0.609576 1.63636 23.0086 7.68891 0 0 0 -1.38786 1.21989 1.84208 -6.40585 
603 2 0.722556 2.31682 22.7389 5.68434 0 0 0 0.0732293 -1.02723 0.131632 -10.9622 
1320 3 -0.67306 1.87779 25.505 15.6916 0 0 0 -2.49565 -3.00256 -4.08242 -7.67563 
1244 3 -0.620697 1.72871 24.1916 13.0629 0 0 0 2.41035 4.87039 -1.27229 -7.14667 
1145 4 0.957037 2.87259 23.0612 12.0048 0 0 0 -0.561912 2.6419 -0.497845 -10.1639 
973 4 0.991245 0.782194 25.7119 13.8879 0 0 0 -0.78112 0.31849 0.339686 -9.68276 
1398 3 -0.595174 1.50195 22.7057 15.1856 0 0 0 -3.02304 1.44884 -2.84317 -7.25411 
2422 8 1.06377 1.36945 23.8712 16.8654 0 0 0 0.551846 -0.159539 -2.35702 -9.59712 
1337 4 0.946683 0.18595 22.7481 13.6469 1 0 0 -1.47619 1.21299 -0.405183 -9.6793 
843 4 0.91556 3.52434 25.1789 14.6129 0 0 0 -1.89325 -0.530301 1.16464 -9.86831 
2222 7 -0.521906 0.306375 22.1613 17.3798 1 0 0 -4.36749 -2.59328 -2.90981 -6.91121 
2862 9 -0.510731 1.33181 25.2913 24.1888 0 0 0 -2.03622 0.0883169 0.405964 -6.99987 
1324 3 -0.573387 2.49617 24.865 18.3064 0 0 0 3.63133 -1.45638 4.77918 -7.3218 
2512 8 1.01522 2.41614 23.8224 20.0247 0 0 0 0.403148 -1.91596 0.69165 -9.72164 
2586 8 1.00525 2.79536 24.7621 23.0187 0 0 0 0.457027 -1.46772 1.60089 -9.29157 
2144 7 -0.586419 3.12797 22.9328 21.7921 0 0 0 1.19864 1.47515 -1.19691 -7.63452 
2427 7 -0.535877 1.00423 22.5223 23.5623 0 0 0 0.348095 8.70485 5.0409 -7.3198 
2258 7 -0.580264 1.07236 24.5342 21.6684 0 0 0 -7.23302 -0.852319 0.14894 -7.17885 
2199 7 -0.595655 3.26967 25.6834 20.8253 0 0 0 -1.0591 1.73798 -3.45953 -7.36451 
1255 3 -0.647016 2.47916 22.2182 18.9347 0 0 0 -0.319069 -6.24735 2.95794 -7.16636 
2605 7 -0.578302 0.128454 23.7554 19.4842 0 0 0 0.341442 1.18824 -1.27184 -7.3095 
2739 9 -0.63931 0.0185408 22.8347 25.9824 1 0 0 -4.25039 2.09632 3.91118 -7.50951 
3065 10 0.952745 2.23366 23.2142 30.1036 0 0 0 0 0 0 -9.6899 
3294 9 -0.535102 2.39892 24.6513 27.7811 0 0 0 0 0 0 -7.42126 
2938 10 0.943247 1.07165 24.5783 26.0676 0 0 0 -0.349348 -0.638754 -1.91079 -9.14479 
3318 9 -0.636683 0.917015 24.5672 30.415 0 0 0 0 0 0 -7.46729 
3279 9 -0.577815 3.6009 24.4621 25.3401 0 0 0 -1.43503 -0.0567957 1.15922 -7.37474 
3222 9 -0.594807 2.39155 23.4007 32.4246 0 0 0 0 0 0 -7.00903 
3257 10 0.904905 0.341071 23.9218 32.3636 1 0 0 0 0 0 -9.3293 
1464 6 0.985417 1.81996 28.8022 -5.30082 0 0 0 0 0 0 -12.3122 
2080 5 -0.517342 2.0348 27.8815 -6.97495 0 0 0 0 0 0 -5.24762 
1474 5 -0.553001 0.256034 27.2358 -5.26244 0 0 0 0 0 0 -5.66536 
1722 6 0.948541 1.08177 26.0931 -7.20737 0 0 0 0 0 0 -11.0492 
2078 5 -0.521533 3.53547 26.4523 -5.07638 0 0 0 0 0 0 -5.66497 
2024 5 -0.607086 2.0343 28.1731 -3.27404 0 0 0 0 0 0 -5.86675 
1434 5 -0.600641 0.527025 27.7259 -0.180191 0 0 0 0 0 0 -5.83709 
531 2 0.661529 1.69222 28.6002 3.19741 0 -1 0 -1.0019 0.943694 -0.182306 -10.8831 
2028 5 -0.659194 2.98561 26.9317 -0.88299 0 0 0 0 0 0 -5.33381 
1677 6 1.01999 0.653868 27.1379 -2.18933 0 0 0 0 0 0 -12.805 
1518 6 0.936398 2.43059 28.8074 -0.143219 0 0 0 0 0 0 -12.1576 
656 1 -0.711321 3.11525 28.3762 1.7732 0 -1 0 -6.68864 -3.78429 0.619088 -5.94384 
5 1 -0.665506 0.760565 26.0376 3.04747 0 0 0 5.45973 -2.29448 -0.973218 -6.25142 
497 2 0.722865 3.05648 27.6668 8.03699 0 0 0 0.310138 1.12701 1.25886 -10.9374 
509 2 0.663457 0.564941 27.8559 5.87595 0 0 0 0.162709 -1.2635 1.10194 -10.6189 
689 1 -0.637925 2.30581 27.3676 5.03139 0 0 0 1.09059 1.25704 -0.787442 -6.22309 
1044 3 -0.64211 2.24863 28.2396 9.93076 0 -1 0 -1.78148 -0.827575 0.481899 -6.83291 
344 1 -0.67708 0.724224 27.5189 7.78923 0 -1 0 -0.0262965 -0.484287 2.19053 -6.36761 
1332 4 0.933201 0.773735 29.3877 8.64508 0 -1 0 -1.89523 0.289983 1.11217 -10.9029 
130 1 -0.61724 2.87238 29.4 6.93334 0 -1 0 2.33689 6.93877 -3.46146 -6.35742 
88 1 -0.662545 0.189987 29.5194 4.7875 0 0 0 -0.673639 4.12515 2.26851 -6.33636 
1374 3 -0.579554 2.13957 27.0685 13.1428 0 0 0 -7.80207 0.420465 2.0683 -7.29686 