ITEM: TIMESTEP
1175000
ITEM: NUMBER OF ATOMS
3344
ITEM: BOX BOUNDS pp pp ff
0.0000000000000000e+00 2.9592161991950931e+01
0.0000000000000000e+00 2.9534688137214133e+01
-8.8921683279491504e+00 4.4289169250706017e+01
ITEM: ATOMS id type q x y z ix iy iz vx vy vz c_eng 
1802 6 0.970131 1.72516 2.49908 -5.82381 0 0 0 0 0 0 -11.9699 
1748 5 -0.552647 2.14386 1.0193 -7.10683 0 0 0 0 0 0 -5.46661 
2036 6 0.847724 0.0810093 0.962117 -7.73073 0 0 0 0 0 0 -10.0741 
1735 5 -0.638396 0.00588626 2.78872 -7.00765 0 0 0 0 0 0 -5.73698 
1835 5 -0.588899 1.86302 1.03842 -4.37975 0 0 0 0 0 0 -5.22626 
1553 6 1.04722 0.84365 0.868596 -2.65107 0 0 0 0 0 0 -12.4915 
1851 5 -0.551264 2.87169 2.14865 -2.36357 0 0 0 0 0 0 -4.9925 
1662 5 -0.705571 1.36566 0.72672 -0.805768 0 0 0 0 0 0 -5.19732 
1877 5 -0.479576 1.02795 3.47934 -1.02956 0 0 0 0 0 0 -5.7472 
1879 6 0.94702 2.73671 2.50286 -0.383048 0 0 0 0 0 0 -12.1511 
111 1 -0.676391 0.492735 2.41607 2.33864 1 0 0 1.96049 -2.99595 -0.618569 -6.27551 
565 2 0.612718 0.297819 1.22708 0.70571 1 0 0 2.18837 0.679905 1.79201 -10.4517 
507 2 0.675585 2.42564 2.42918 2.86946 0 0 0 -1.2278 1.1405 -2.35643 -10.9496 
248 1 -0.644497 3.23215 0.687107 3.982 0 0 0 6.16155 1.19079 -3.38973 -6.26302 
122 1 -0.605506 1.47256 3.138 5.22051 0 0 0 -5.27711 -0.634379 -3.36922 -6.28411 
430 1 -0.590438 1.45453 1.38428 10.0257 0 0 0 4.10349 2.77562 1.20471 -6.77495 
367 2 0.691771 1.45981 3.24737 7.39205 0 0 0 1.98023 -0.30043 1.89388 -10.5331 
484 1 -0.620598 0.698607 1.27788 7.25065 1 0 0 4.17244 4.46826 -0.388631 -6.1233 
567 2 0.693488 1.87128 1.16373 5.51689 0 0 0 0.842886 -1.86517 -1.50052 -10.7665 
1422 4 0.969454 3.29129 3.14481 10.5387 0 0 0 1.72623 0.251445 -1.89053 -10.5894 
1098 4 0.954841 1.09761 1.30519 12.2224 0 0 0 0.294071 0.543368 -1.01499 -10.0657 
1143 3 -0.648957 2.51527 3.32171 15.6428 0 0 0 3.45696 2.28793 2.96642 -7.70017 
1117 4 0.935514 3.42978 3.4277 13.8223 0 0 0 0.220711 0.544215 0.756999 -10.04 
1121 3 -0.481108 1.19137 0.638077 14.8921 0 0 0 2.94544 -0.258315 -7.20297 -6.99694 
1271 3 -0.61583 2.11516 3.22164 12.0725 0 0 0 -3.66829 -3.18377 3.59698 -7.02846 
1175 4 0.971697 2.77964 1.06221 15.9117 0 0 0 0.173821 -1.75466 0.881808 -9.62252 
1339 3 -0.600573 2.72018 0.325161 12.2693 0 0 0 -0.174288 3.94667 -6.86707 -6.77403 
840 3 -0.602049 0.203726 2.91656 13.8179 1 0 0 2.44509 4.71826 6.44657 -7.11659 
1173 3 -0.529521 1.29098 3.10141 20.4507 0 0 0 0.906716 -0.914822 -2.16535 -7.50139 
2397 7 -0.570386 0.370439 0.36855 20.9045 1 0 0 -3.45178 5.22346 0.505447 -6.66302 
2296 7 -0.555804 1.03112 2.0839 22.9847 0 0 0 -5.58073 2.7937 -3.28655 -7.0204 
2507 7 -0.638371 3.27203 0.803355 22.7788 0 0 0 -2.40221 -3.17696 -1.18203 -7.27342 
2398 8 1.04903 2.07922 1.13923 21.3167 0 1 0 1.67497 -0.645831 0.963118 -9.56158 
2500 8 1.00501 0.844227 2.59806 18.4025 1 0 0 -1.28575 -2.69964 0.545964 -9.59402 
1147 3 -0.580657 2.48237 1.60302 17.7614 0 0 0 -1.86388 1.38807 5.38729 -7.12812 
3018 10 1.05356 1.23101 1.60108 27.6214 0 0 0 0.589864 -0.748144 0.0514713 -9.78001 
3067 9 -0.677018 3.00979 1.46085 30.3488 0 0 0 0 0 0 -6.99674 
3041 9 -0.51099 1.48482 3.2227 28.6783 0 0 0 0 0 0 -6.71965 
3191 9 -0.585047 1.86788 3.35163 25.6958 0 0 0 3.75992 -1.8298 2.83049 -7.42328 
2951 9 -0.551306 0.694163 0.904296 25.8048 0 0 0 -4.00896 4.48874 1.31398 -7.20643 
3143 9 -0.492359 0.431662 0.958422 29.5551 1 0 0 0 0 0 -6.60649 
3095 10 0.983615 1.62841 2.89755 30.8277 0 0 0 0 0 0 -9.88196 
2309 8 1.02546 2.18481 1.59562 24.4525 0 0 0 -1.28539 0.695786 0.702977 -9.45873 
2814 9 -0.60083 3.49122 2.10287 27.4409 0 0 0 6.0374 0.36262 3.03904 -7.53317 
3190 9 -0.490905 0.787066 1.77218 32.0981 1 0 0 0 0 0 -6.08191 
1684 6 0.747331 0.44545 4.47635 -7.87932 0 0 0 0 0 0 -9.55864 
1477 6 0.980498 3.46188 7.11466 -5.47067 0 0 0 0 0 0 -12.2024 
1857 5 -0.515542 2.0327 5.78303 -5.97954 0 0 0 0 0 0 -5.3516 
1590 6 1.07068 0.50881 5.42193 -4.74455 0 0 0 0 0 0 -12.1057 
1975 5 -0.438998 2.43716 3.78563 -7.65315 0 0 0 0 0 0 -5.02176 
1821 6 0.993261 3.37074 4.02635 -3.5146 0 0 0 0 0 0 -12.2735 
1825 5 -0.555909 1.50921 3.71933 -4.38085 0 0 0 0 0 0 -5.78209 
1909 5 -0.637068 0.0621347 7.23918 -4.24721 0 0 0 0 0 0 -5.46584 
1818 5 -0.472348 2.15516 5.83874 -2.82165 0 0 0 0 0 0 -5.65847 
339 1 -0.626783 2.5147 4.03208 1.30803 0 0 0 0.375012 -3.31024 8.7668 -5.61874 
1896 6 0.953688 3.05822 5.78492 -0.958883 0 0 0 0 0 0 -11.7834 
1641 5 -0.667101 1.11682 5.99276 -0.226154 0 0 0 0 0 0 -5.65638 
1664 6 0.995538 0.000929704 6.49171 -1.72773 0 0 0 0 0 0 -12.4274 
400 2 0.657478 2.84519 5.96191 2.22993 0 0 0 -0.60684 -0.312595 0.0845012 -10.5692 
428 2 0.690211 0.448339 4.51278 0.878867 0 0 0 0.471069 -0.766681 0.169603 -11.3172 
579 1 -0.652254 1.27054 5.56081 3.45549 0 0 0 -1.20089 -1.57807 1.20915 -6.32264 
114 2 0.723863 0.0547145 3.95059 3.8948 0 0 0 -2.47112 -0.607894 0.756626 -11.0024 
202 2 0.644014 0.361386 5.85369 6.51412 1 0 0 1.65469 -0.93525 -0.769801 -10.4503 
142 1 -0.690494 2.45635 5.43855 6.80918 0 0 0 -3.0445 -1.88357 -0.0389877 -6.45688 
980 4 0.897706 1.67575 5.59396 9.51394 0 0 0 -1.51446 -2.08106 0.635617 -10.766 
310 2 0.710895 3.18521 4.7914 5.01621 0 0 0 0.346457 0.129626 -0.56072 -11.0787 
55 1 -0.690046 2.57193 3.99463 8.93792 0 0 0 -7.85885 -3.06371 4.90435 -6.70567 
580 1 -0.625998 3.53587 6.83168 4.51213 0 0 0 2.67493 4.81481 -0.719973 -6.33561 
581 2 0.668691 2.89037 7.37655 6.73269 0 0 0 0.830567 -0.167363 0.318645 -10.6436 
2393 8 1.00222 0.611146 3.86647 15.5039 0 0 0 -0.403776 -0.775471 -1.73947 -9.80344 
891 3 -0.513674 0.764057 6.22499 16.2328 0 0 0 -2.99555 -3.7349 -2.54907 -6.87554 
37 1 -0.579057 1.86338 5.99715 11.4435 0 0 0 -1.36835 -6.23147 1.53235 -6.51654 
1114 3 -0.573811 1.54952 5.32665 13.9925 0 0 0 2.14158 -1.38458 -5.39282 -6.79134 
1192 4 1.06954 2.82031 6.63953 14.8173 0 0 0 0.892022 0.232146 -0.38944 -10.0858 
762 3 -0.627721 3.41849 5.8735 16.5917 0 0 0 1.79364 -8.98244 2.69045 -7.24608 
886 4 1.03332 0.458408 4.52277 12.4233 0 0 0 0.144596 0.744306 1.30328 -10.3456 
2304 8 1.03107 0.614306 4.98806 21.5115 1 0 0 0.862428 -1.87234 1.13168 -9.32508 
2521 7 -0.585292 2.26355 5.77469 20.3498 0 0 0 -3.31413 1.09108 6.32363 -7.42805 
2202 7 -0.540667 1.7643 4.62416 23.0279 0 0 0 2.45788 3.79977 -4.02294 -7.38961 
937 3 -0.636814 2.64277 4.05833 18.324 0 0 0 -0.154673 -2.66047 2.94741 -6.89483 
2551 8 0.993121 1.71345 5.92531 18.2491 0 0 0 0.680293 0.117077 -1.0959 -9.97365 
2618 8 0.979868 3.38223 4.01656 20.2134 0 0 0 0.330495 -1.74559 -0.275449 -9.74398 
2151 7 -0.576072 0.0423677 4.37618 18.0974 1 0 0 -3.66186 -0.865087 -1.63367 -7.35342 
2900 10 0.999068 0.753591 4.69886 24.8167 0 0 0 -1.20691 -2.44051 -0.0631576 -9.4306 
3034 9 -0.638659 2.77364 4.61244 30.302 0 0 0 0 0 0 -7.03005 
3146 10 0.978339 0.643199 7.24674 26.5347 0 0 0 1.49089 -1.58386 2.09947 -9.37007 
3073 9 -0.492552 1.67775 5.52369 27.4871 0 0 0 -6.17244 6.04676 -0.633188 -6.79534 
2693 10 0.976617 3.09607 6.26158 28.8163 0 0 0 0.761283 0.205501 -0.861082 -9.82487 
3125 9 -0.592619 0.142268 6.06003 29.6391 0 0 0 0 0 0 -7.44315 
3184 9 -0.513807 1.09286 6.75189 24.6797 1 0 0 -6.81902 0.566388 1.93447 -7.34535 
3344 9 -0.522012 3.48628 5.52251 25.3717 0 0 0 -1.0621 -8.8898 -1.68391 -7.25881 
3093 9 -0.581707 0.671095 4.44053 31.9083 0 0 0 0 0 0 -6.60988 
3136 9 -0.595487 0.780417 7.25558 32.4875 0 0 0 0 0 0 -6.47411 
2857 9 -0.538932 3.61159 6.05738 32.4556 0 0 0 0 0 0 -6.35368 
2880 10 0.935346 1.5457 6.02442 31.2853 0 0 0 0 0 0 -9.78539 
1668 5 -0.476957 1.64129 10.6677 -7.73594 0 0 0 0 0 0 -4.6877 
1710 6 0.979437 3.38321 9.88503 -7.55904 0 0 0 0 0 0 -11.2649 
1995 5 -0.560398 1.79235 8.2711 -5.98123 0 0 0 0 0 0 -5.39918 
1930 6 0.871884 0.672136 7.74031 -7.51036 0 0 0 0 0 0 -10.9308 
1697 5 -0.557729 3.31152 10.3892 -5.66731 0 0 0 0 0 0 -5.20199 
1842 5 -0.400859 2.53605 8.15308 -8.52032 0 0 0 0 0 0 -4.4001 
2066 6 1.02521 1.28974 8.78579 -4.10193 0 0 0 0 0 0 -12.2693 
1595 5 -0.544961 3.06663 8.26226 -3.57222 0 0 0 0 0 0 -5.40254 
2025 5 -0.589131 1.63384 10.6197 -3.32851 0 0 0 0 0 0 -5.52031 
1628 5 -0.657077 3.03813 10.4007 -0.960219 0 0 0 0 0 0 -5.65221 
1920 5 -0.579167 0.903349 8.32092 -2.0179 0 0 0 0 0 0 -5.85197 
1504 6 0.950981 1.05091 10.076 -1.02812 0 0 0 0 0 0 -11.9325 
380 2 0.66859 0.481686 7.81322 0.929785 0 0 0 -0.604719 -1.00912 0.49725 -11.0938 
423 1 -0.619233 0.615871 9.98217 0.885994 0 0 0 -2.11195 0.798646 -1.97963 -5.95102 
137 2 0.667712 1.43251 7.49022 4.02494 0 0 0 -1.21674 -1.17264 1.05567 -10.5313 
663 1 -0.571883 2.48013 7.85108 1.37691 0 0 0 0.874035 1.38715 -3.24893 -6.19871 
530 2 0.700454 3.4658 9.70306 0.94097 0 0 0 0.73652 0.250694 -0.908134 -11.4576 
345 1 -0.591445 1.9952 9.48426 3.68003 0 0 0 1.96595 -1.20064 -7.67838 -6.37498 
213 2 0.67023 0.0690124 10.0833 2.90055 0 0 0 0.778518 -0.596971 -1.16123 -10.7229 
421 1 -0.660638 -0.0273269 8.25123 10.732 0 0 0 -3.75131 2.75677 7.01457 -7.13643 
1085 3 -0.630605 0.822212 9.7958 8.13308 0 0 0 -4.83329 1.85191 -2.71602 -6.77472 
100 1 -0.67132 0.81271 7.88025 5.93053 0 0 0 4.2755 -0.562121 1.65954 -6.83361 
614 2 0.720599 1.4267 10.1068 6.13505 0 0 0 -2.04826 2.11155 -0.798223 -10.9868 
1006 4 0.91786 2.81054 9.84251 9.20193 0 0 0 -0.575405 0.0949737 0.409259 -10.8245 
577 1 -0.630894 3.50525 9.26359 6.24927 0 0 0 0.91956 1.17951 -2.61105 -6.70301 
1362 4 0.916211 0.0700928 8.07757 8.66202 0 0 0 -0.655297 0.694651 0.273008 -10.8444 
480 1 -0.659349 2.37198 7.49505 8.89858 0 0 0 4.92298 -0.398745 -6.89594 -6.87402 
1138 3 -0.640818 2.29531 9.6031 10.9891 0 0 0 -0.937194 1.6126 -7.06889 -6.881 
474 1 -0.557747 3.12052 7.76209 13.1426 0 0 0 -2.54704 -7.62674 -0.812079 -6.65969 
993 3 -0.588108 2.30883 8.31098 15.7827 0 0 0 -0.456656 3.29292 2.78745 -7.15472 
1115 3 -0.611387 0.715256 10.0442 16.9576 1 0 0 6.03035 -1.89694 1.74241 -7.20667 
800 4 1.02818 1.13221 9.722 14.83 0 0 0 1.02073 0.211093 0.213111 -10.073 
1334 3 -0.621791 1.40286 10.6999 13.1078 1 0 0 0.616933 1.14774 2.41696 -6.85943 
922 4 0.988411 1.74612 7.76985 11.7536 0 0 0 3.09774 0.0689402 -0.498734 -10.2157 
1024 4 0.928344 0.147845 10.287 11.541 1 0 0 -1.66739 -0.891811 -0.494972 -10.3681 
1291 3 -0.560422 0.553846 8.06647 13.5639 0 0 0 1.6793 -0.682657 -3.19884 -7.18835 
1321 3 -0.439703 2.88928 10.7895 15.5379 0 0 0 -6.67535 0.950891 -0.494459 -6.64419 
2549 8 1.00438 2.72553 8.53676 22.872 0 0 0 -1.43239 0.635617 -1.75141 -9.20825 
1216 3 -0.671711 0.68859 7.71099 18.3645 0 0 0 -2.02802 -4.49983 -2.6637 -7.40748 
2205 7 -0.582981 2.81166 8.75999 20.7948 0 0 0 6.02413 1.46276 9.5717 -7.24802 
2177 7 -0.561996 0.900646 7.42062 22.0889 1 0 0 3.94328 -3.61961 -8.85496 -7.06903 
2443 7 -0.450541 1.28726 9.83457 23.1966 1 0 0 -0.495356 1.90679 0.201556 -6.53169 
2270 7 -0.608936 0.487254 9.8304 19.8275 1 0 0 2.22808 1.83575 -1.78626 -7.2157 
2417 8 1.00529 0.382251 8.02873 20.3583 0 0 0 -2.02818 0.200165 0.124634 -9.5284 
2256 8 0.977752 2.08559 10.7651 20.6746 0 0 0 -0.307562 -0.657777 1.19934 -9.56382 
924 3 -0.632462 2.62512 10.8689 18.6889 0 0 0 0.274112 2.49621 -2.19579 -7.55223 
2306 7 -0.574105 3.37633 10.7586 22.3257 0 0 0 5.08196 1.4961 -4.01457 -7.13404 
2178 8 1.00342 2.27242 8.92016 17.7211 0 0 0 -0.366971 1.86254 -2.35632 -9.96797 
1210 3 -0.623293 3.25033 7.44759 18.6048 0 0 0 -2.78301 6.30005 1.49727 -7.09459 
3121 9 -0.632403 0.152655 8.92587 30.2329 1 0 0 0 0 0 -7.3594 
3058 9 -0.477824 3.35819 8.28928 24.7181 0 0 0 3.74699 -3.03622 -3.56829 -7.10435 
2913 9 -0.57319 3.08682 10.5838 28.1803 0 0 0 6.28522 -3.58699 -1.92524 -7.50915 
3005 9 -0.547632 2.02162 10.27 25.8214 0 0 0 1.24338 -7.38053 1.19578 -7.13325 
3211 9 -0.613182 2.02127 8.07592 27.6174 0 0 0 -0.908006 2.72076 0.777676 -7.3316 
2926 10 1.00588 3.49953 9.0039 26.5261 0 0 0 1.55218 0.789668 0.555927 -9.32708 
3282 10 1.0034 1.92691 9.26036 29.2311 0 0 0 0 0 0 -9.71806 
2811 9 -0.680517 2.5515 7.49451 30.2657 0 0 0 0 0 0 -7.47422 
3241 9 -0.582388 2.09994 10.6501 30.7246 0 0 0 0 0 0 -7.163 
2844 9 -0.514967 2.70826 9.04795 32.7021 0 0 0 0 0 0 -6.10294 
2720 10 0.961415 0.586525 9.22541 32.092 0 0 0 0 0 0 -9.90828 
2980 9 -0.557166 0.971353 10.8999 33.3026 0 0 0 0 0 0 -6.2915 
1493 5 -0.589674 2.35408 13.0178 -5.98123 0 0 0 0 0 0 -5.54314 
1511 6 0.956515 1.09832 12.4678 -7.27982 0 0 0 0 0 0 -10.8039 
1536 6 1.01921 3.56086 14.5547 -5.53605 0 0 0 0 0 0 -12.4153 
1840 5 -0.658268 0.145045 14.3028 -7.28475 0 0 0 0 0 0 -5.37804 
1539 5 -0.587273 0.627647 13.0212 -4.04772 0 0 0 0 0 0 -5.46991 
1484 6 1.06864 2.91319 11.6885 -4.45009 0 0 0 0 0 0 -12.3416 
1939 5 -0.57401 2.9991 12.8542 -2.9592 0 0 0 0 0 0 -5.06931 
1437 6 1.00487 0.701549 13.5809 -2.07916 0 0 0 0 0 0 -12.5509 
2018 6 1.02323 3.42803 12.3202 -1.12582 0 0 0 0 0 0 -12.5472 
1764 5 -0.701417 1.58219 13.002 -0.521059 0 0 0 0 0 0 -5.30282 
586 1 -0.62662 2.23478 13.5898 3.14983 0 0 0 5.23094 -6.05356 -3.802 -6.05227 
146 2 0.66114 1.1923 12.2336 1.15928 1 0 0 -2.02662 -2.24914 -2.73294 -10.7618 
398 2 0.698258 2.77761 11.5436 3.53061 0 0 0 -1.71897 1.86758 -2.35382 -10.8561 
697 1 -0.692379 3.21444 11.6345 1.41189 0 0 0 3.34683 4.73949 -4.34869 -6.10808 
665 2 0.683503 0.177212 12.75 4.24859 1 0 0 -0.456574 0.00288262 -3.12629 -10.7305 
807 4 0.890498 1.03184 12.4305 9.31871 0 0 0 1.68874 -1.44766 -0.951401 -10.6193 
218 1 -0.638392 0.541267 13.389 7.52774 0 0 0 11.78 1.32389 0.395565 -6.53903 
416 2 0.728131 2.26118 13.3549 6.6347 0 0 0 0.00710309 -0.206493 1.10853 -10.8377 
572 1 -0.637115 1.81764 11.8156 5.34639 0 0 0 -0.632937 2.98003 3.01692 -6.06661 
690 1 -0.649218 2.89109 11.7269 8.34183 0 0 0 7.78635 0.239316 4.43888 -6.78583 
491 1 -0.647363 0.832303 14.5312 10.1473 0 0 0 0.72136 5.50955 7.00442 -6.85379 
39 1 -0.656041 3.29282 14.6402 8.03274 0 0 0 -4.20535 -6.98081 -1.35899 -6.96478 
956 3 -0.632406 2.51976 12.4358 10.8444 0 0 0 -1.77873 0.106815 4.41659 -6.81048 
733 4 0.997568 0.873051 12.8475 13.8067 0 0 0 0.47324 1.0649 -1.69419 -9.87165 
789 3 -0.54336 1.48667 13.1447 15.7497 0 0 0 4.17415 -0.556245 -1.99364 -7.29969 
2408 8 0.972219 1.1789 11.8846 17.3808 0 0 0 -3.66327 0.0126372 2.40051 -9.59055 
905 3 -0.514666 3.14223 12.7494 13.3991 0 0 0 0.229473 4.11551 3.80506 -6.93109 
832 4 0.931969 2.4863 14.419 11.4107 0 0 0 -0.772429 0.197234 0.552926 -10.4855 
1136 3 -0.568493 1.27318 14.6939 13.1243 0 0 0 -3.24654 7.04847 6.34416 -6.8561 
780 4 1.0145 3.23581 11.0631 12.3385 0 0 0 0.48592 -1.84624 0.971353 -10.3662 
1235 3 -0.625812 3.19641 13.2582 17.9131 0 0 0 -0.932639 -4.62492 1.7354 -7.25103 
1060 3 -0.547137 2.5108 12.7178 20.9832 0 0 0 3.10698 -2.90281 1.61923 -7.20181 
2260 8 0.9569 2.52601 14.1642 19.4813 0 0 0 1.00659 0.996491 -0.975161 -9.54997 
2506 8 0.933118 0.843099 13.3524 21.9726 1 0 0 1.1279 -0.252583 3.80489 -9.43662 
2242 7 -0.587503 2.49975 13.4053 23.6169 0 0 0 -2.21991 -3.48428 -1.16213 -7.50136 
1274 3 -0.584293 0.640205 13.1037 19.1837 0 0 0 -0.132927 9.81999 -0.334183 -7.30982 
2570 8 1.02461 2.36669 11.3582 24.0857 0 0 0 2.267 -1.89122 0.0280408 -9.52638 
2197 7 -0.480688 0.040164 11.6656 21.4763 1 0 0 1.23419 6.9875 -3.38836 -6.92826 
2453 7 -0.546211 0.436658 12.0693 24.1693 0 0 0 -3.59444 -0.438012 1.60156 -7.39721 
2709 9 -0.643567 0.84235 12.2493 28.7922 0 0 0 -0.665159 -7.42272 -4.61509 -7.64841 
2876 9 -0.604561 2.31937 12.8272 26.3221 0 0 0 -4.55484 -1.36431 1.10083 -7.38667 
2757 10 0.991644 1.16146 14.3199 24.9796 0 0 0 -1.55338 0.547431 0.334751 -9.25101 
2727 10 1.00908 0.94552 11.5776 27.0037 0 0 0 -1.4187 1.27303 -0.605788 -9.5572 
2700 10 0.97547 2.693 12.3685 29.6868 0 0 0 0 0 0 -9.7469 
3056 9 -0.564929 0.50078 14.509 26.8884 0 0 0 -6.80848 2.45304 -2.44738 -7.33773 
3062 9 -0.621385 2.19647 14.4714 29.8338 0 0 0 0 0 0 -7.68392 
2979 9 -0.588194 3.21093 12.9237 33.1985 0 0 0 0 0 0 -6.36511 
2755 9 -0.600624 0.962108 12.967 31.4267 0 0 0 0 0 0 -6.91778 
3083 10 0.920512 2.04269 14.2811 32.4858 0 0 0 0 0 0 -9.18501 
3194 9 -0.514756 0.331011 14.1535 33.6452 0 0 0 0 0 0 -5.94733 
3234 10 0.984096 2.81265 11.08 32.5951 0 0 0 0 0 0 -9.4797 
1794 5 -0.498263 0.0642182 16.4825 -5.53735 0 0 0 0 0 0 -5.98577 
1660 5 -0.567894 2.53414 15.5431 -7.05451 0 0 0 0 0 0 -5.31903 
1494 5 -0.515883 1.24875 17.7148 -8.24278 0 0 0 0 0 0 -4.66082 
1541 6 0.89092 0.929162 15.8872 -8.1644 0 0 0 0 0 0 -10.3818 
1868 6 0.967864 3.58023 17.2738 -7.26231 0 0 0 0 0 0 -11.929 
1429 5 -0.608626 2.46917 18.2078 -5.89243 0 0 0 0 0 0 -5.48237 
1846 5 -0.559998 2.20766 15.3081 -4.18135 0 0 0 0 0 0 -5.92504 
2035 6 0.958189 1.45245 17.2883 -4.38656 0 0 0 0 0 0 -12.3163 
1513 5 -0.686341 3.21999 17.5602 -3.29097 0 0 0 0 0 0 -5.40225 
1867 6 0.983269 3.46161 15.6034 -2.53379 0 0 0 0 0 0 -12.3597 
1890 5 -0.672731 0.50966 17.8482 -2.34134 0 0 0 0 0 0 -5.42555 
1813 5 -0.639842 3.22079 16.8573 -0.757449 0 0 0 0 0 0 -5.40138 
1978 5 -0.597393 0.982506 15.4389 -1.62043 0 0 0 0 0 0 -5.50655 
311 2 0.613308 2.21486 15.3063 0.00751806 0 0 0 1.97306 0.265356 1.54729 -10.7449 
77 1 -0.660289 1.53251 17.3624 2.20298 0 0 0 1.87514 6.05695 -0.698062 -5.96474 
2050 6 0.930379 2.31154 18.3066 -1.79829 0 0 0 0 0 0 -11.8869 
147 2 0.671213 1.81928 18.2341 3.95164 0 0 0 -0.79988 0.83338 1.90046 -10.6647 
360 2 0.657218 1.62609 15.4482 2.9791 0 0 0 -1.23671 0.737083 1.2188 -10.4675 
466 2 0.691736 3.5899 17.7152 1.45528 0 0 0 -1.65189 0.389203 1.5474 -11.1609 
609 1 -0.639749 2.00462 15.2643 5.39736 0 0 0 -0.761316 -2.72751 1.939 -6.69553 
243 2 0.649751 3.25878 16.5838 6.50984 0 0 0 0.166933 0.550259 0.583701 -10.5819 
637 1 -0.573406 0.13638 18.1615 5.6071 0 0 0 -4.32371 -1.70537 5.23782 -6.70251 
837 4 0.753934 1.09915 15.5083 8.3466 0 0 0 -2.1758 -0.262157 -0.163258 -10.3057 
790 3 -0.620858 2.59571 16.5012 10.5834 0 0 0 6.14022 3.81436 -4.16378 -6.92298 
588 1 -0.623592 1.59806 17.5942 7.92904 1 0 0 2.69085 2.5259 -0.808863 -6.77046 
1268 4 0.912594 1.9868 18.2769 9.72215 0 0 0 0.702036 -0.25998 0.329405 -10.7549 
499 2 0.674886 0.0530437 15.9286 5.42562 0 0 0 -1.30041 0.555902 -1.8072 -10.6626 
131 1 -0.687101 3.22696 18.4344 5.49124 0 0 0 -1.11803 -1.37656 2.77625 -6.63499 
1346 4 0.975537 0.860567 16.6038 13.2119 0 0 0 0.285146 -0.178389 0.182398 -10.0548 
725 3 -0.645713 0.660286 17.997 11.7377 0 0 0 1.3048 3.67506 -0.0696387 -7.07368 
1275 3 -0.652101 1.24068 16.5838 15.2523 0 0 0 -4.02201 2.06982 5.27517 -7.42782 
906 3 -0.575228 3.56109 15.5917 12.8894 0 0 0 0.616066 -3.26713 -1.94531 -6.57268 
1034 3 -0.589972 2.76074 18.1166 13.2871 0 0 0 -3.04981 -5.67482 4.19673 -7.35502 
2212 8 1.03721 3.18598 17.4416 15.3249 0 0 0 0.67569 1.11752 -1.22738 -9.36407 
2271 8 0.964366 1.79923 14.9479 16.257 0 0 0 0.314622 -0.744462 -1.10552 -9.56426 
876 3 -0.54694 0.08315 14.9935 17.2082 1 0 0 0.984431 2.75331 -1.47229 -6.99147 
759 3 -0.525548 2.48513 18.3747 16.9181 0 0 0 0.873588 -6.17257 -2.22965 -7.11435 
2614 7 -0.646389 3.07724 17.437 23.0168 0 0 0 1.25016 -4.88996 1.94571 -7.6844 
2509 8 1.03654 1.895 17.4758 18.7149 0 0 0 -0.678381 1.81004 1.64619 -9.31373 
2529 7 -0.577857 1.22538 15.6162 23.3142 0 0 0 1.43125 -1.49611 -0.933124 -7.37072 
2201 8 0.959594 3.19842 15.532 22.395 0 0 0 -0.870963 1.82839 -0.407949 -9.41999 
1109 3 -0.61109 2.46653 15.7209 18.0775 0 0 0 4.2959 1.65498 1.93497 -7.42288 
2420 7 -0.502207 1.42791 17.8509 20.7545 0 0 0 6.91252 -6.15982 3.16115 -7.34451 
1186 3 -0.621416 1.26857 15.127 20.721 0 0 0 1.73593 -2.68924 -1.5978 -7.52811 
2187 7 -0.503241 3.69389 18.435 19.3552 0 0 0 1.75739 2.17558 1.84909 -7.21199 
2566 8 1.01169 1.71468 17.9902 24.1569 0 0 0 0.304672 1.41802 1.32602 -9.44825 
915 3 -0.650943 0.198866 17.4945 17.9533 0 0 0 2.71434 -3.86625 0.387695 -7.29121 
2440 7 -0.637617 0.0351811 18.0105 23.0368 1 0 0 -5.70349 1.05306 0.151582 -7.317 
2513 8 1.03908 0.0132179 16.3312 21.8435 0 0 0 0.482665 1.66638 1.23491 -9.42251 
3096 9 -0.448417 3.07033 15.3979 25.6243 0 0 0 0.495635 4.06977 1.28814 -7.29485 
2645 9 -0.566993 1.59705 17.0313 27.9683 0 0 0 1.52888 5.92656 -0.134467 -7.17072 
2710 9 -0.505548 0.369285 17.0941 25.6444 0 0 0 -5.69817 -1.35854 -8.59849 -7.23698 
2729 9 -0.65558 2.71302 17.4591 30.2958 0 0 0 0 0 0 -6.99523 
2663 9 -0.628729 2.80646 18.2176 25.8544 0 0 0 -1.5498 -5.61826 -4.64701 -7.50597 
3251 10 1.00717 1.06747 16.6363 29.982 0 0 0 0 0 0 -9.74304 
2779 10 1.02113 3.51522 17.7703 28.3458 0 0 0 0 0 0 -9.88326 
2752 10 0.899981 2.41925 14.7626 27.6282 0 0 0 -0.801873 -1.36697 1.45571 -9.45664 
3029 9 -0.515698 3.45145 15.5975 32.242 0 0 0 0 0 0 -6.50918 
3106 9 -0.629244 0.5218 16.2507 31.8065 0 0 0 0 0 0 -7.39819 
3158 10 0.81668 0.316053 18.1821 32.4367 1 0 0 0 0 0 -8.61281 
3266 10 0.891768 3.66495 18.3815 31.6653 0 0 0 0 0 0 -9.17344 
1972 6 1.03511 0.8886 19.1876 -7.0092 0 0 0 0 0 0 -12.0576 
1967 5 -0.588609 2.07154 20.7971 -6.40046 0 0 0 0 0 0 -5.59325 
1979 5 -0.55215 0.529281 19.274 -4.62812 0 0 0 0 0 0 -5.7374 
1811 5 -0.278091 0.697192 20.3512 -8.59578 0 0 0 0 0 0 -3.71679 
1447 5 -0.444845 3.60344 18.921 -8.3861 0 0 0 0 0 0 -4.56862 
1658 6 0.984078 2.04569 20.7122 -4.37171 0 0 0 0 0 0 -12.2745 
1619 5 -0.675586 1.99833 20.109 -2.38092 0 0 0 0 0 0 -5.5134 
103 1 -0.56253 1.56223 20.0673 3.18038 0 0 0 2.74481 -7.78482 8.17192 -6.18238 
1918 6 1.01994 2.04841 21.63 -1.14409 0 0 0 0 0 0 -12.4301 
1435 5 -0.633597 0.0227936 21.8092 -1.77234 0 0 0 0 0 0 -5.65213 
208 1 -0.606665 2.10779 21.7467 0.898501 0 0 0 -2.56438 1.31755 3.66139 -5.68163 
260 1 -0.594968 2.77912 19.239 0.263551 0 0 0 -0.795434 5.96284 -1.29511 -5.90105 
407 2 0.690753 3.40325 20.8842 3.692 0 0 0 2.75927 0.224528 0.598418 -10.712 
280 2 0.720033 0.395773 21.4508 1.96361 0 0 0 0.633428 1.85868 -0.112758 -11.3784 
653 2 0.633079 0.792169 18.5568 0.598387 0 0 0 -0.754863 0.958561 -0.921775 -10.8689 
263 2 0.70955 1.72769 19.6136 6.73121 1 0 0 -1.01833 0.513566 1.59366 -10.7205 
1396 4 0.890263 0.471633 21.4527 9.29768 0 0 0 -2.41041 0.754777 -2.52113 -10.3909 
532 1 -0.629808 0.918057 21.1179 5.77059 0 0 0 -0.23244 0.17616 1.08011 -6.21711 
879 4 0.864186 3.36421 21.0173 9.76266 0 0 0 -0.523926 0.891589 -2.25765 -10.3947 
834 3 -0.625098 3.18412 20.2715 7.9984 0 0 0 2.01094 5.48959 -2.4994 -6.86493 
1263 3 -0.596078 1.34069 20.1179 10.4631 0 0 0 1.25748 4.29468 1.33242 -6.76894 
786 3 -0.509056 3.18468 20.9744 16.5606 0 0 0 1.3668 5.67102 1.87984 -6.96456 
1283 4 0.998283 3.42334 21.8649 14.777 0 0 0 0.214113 -0.535711 -2.83756 -9.70553 
912 3 -0.616179 2.70904 21.2486 12.7357 0 0 0 -2.3952 1.59003 0.610384 -7.54204 
1328 3 -0.508583 1.3938 19.7073 14.8533 1 0 0 -4.65873 -1.58749 -0.0248704 -6.99246 
954 4 0.995276 1.66646 19.623 12.6922 0 0 0 -1.92246 -1.30624 -1.7956 -9.96191 
1214 4 1.03838 1.14343 19.9614 16.7892 0 0 0 -1.5914 -0.657726 0.709301 -9.44449 
2222 7 -0.502635 0.361502 22.0073 17.2697 1 0 0 8.21285 -1.20221 5.20409 -7.0321 
2494 7 -0.601235 1.0666 21.4966 20.9512 0 0 0 4.92984 1.60583 -5.26948 -7.40133 
2390 8 1.00012 3.0391 21.2897 23.3666 0 0 0 2.93973 0.183898 0.462657 -9.53866 
2474 7 -0.615027 3.07319 19.9573 21.6219 0 0 0 -3.09066 -11.0791 2.21748 -7.61055 
2305 8 0.984201 0.708797 19.5819 21.7672 0 0 0 0.0423987 0.964015 -1.1939 -9.72992 
2182 8 1.0024 3.04687 20.2311 19.6795 0 0 0 -0.0220181 0.141273 -0.132994 -9.39424 
2208 7 -0.636101 1.57831 19.9357 23.729 0 0 0 9.8224 7.26013 2.06618 -7.29192 
815 3 -0.605882 1.02239 19.7952 18.795 0 0 0 -8.81238 4.27274 2.28289 -7.4337 
2636 8 0.966809 0.0172327 21.5712 19.1603 1 0 0 -1.47874 1.39696 1.12272 -9.65746 
1255 3 -0.625923 2.59907 22.0524 18.8922 0 0 0 -1.69627 -3.0574 3.79611 -7.13372 
3175 9 -0.661787 3.302 21.1495 30.7938 0 0 0 0 0 0 -7.74065 
2874 10 0.892509 1.44707 19.8657 30.1297 0 0 0 0 0 0 -9.6386 
2706 9 -0.579696 0.91804 21.674 29.8939 0 0 0 0 0 0 -7.16451 
2799 10 0.97135 3.29106 20.0895 26.1368 0 0 0 -0.451905 -0.180043 0.292181 -9.50364 
3027 9 -0.612104 1.18116 20.4805 26.3131 0 0 0 -0.7007 -4.09203 0.246676 -7.10873 
3183 9 -0.607817 2.36874 19.4674 28.3623 0 0 0 -2.68009 -3.20436 -6.0652 -7.48014 
2754 9 -0.478943 3.13943 21.9999 25.416 0 0 0 -8.2118 0.538077 0.137661 -7.12062 
3316 10 0.973463 0.768092 22.0234 27.7696 0 0 0 0.96522 1.84056 0.169786 -9.53622 
3188 10 0.967219 0.576987 18.8494 27.0826 0 0 0 -0.672052 -0.512058 -1.74792 -9.56943 
3195 9 -0.608358 0.0548459 18.5576 30.2141 0 0 0 0 0 0 -7.46435 
3164 9 -0.582796 2.70462 22.1363 28.0699 0 0 0 -0.242685 -1.45097 1.06943 -7.17073 
2835 9 -0.673115 1.94729 19.1395 32.1451 0 0 0 0 0 0 -7.17388 
3134 10 0.927938 2.3865 21.2629 32.5699 0 0 0 0 0 0 -8.99881 
2651 9 -0.591031 0.501343 21.4636 32.7366 0 0 0 0 0 0 -6.79182 
1948 5 -0.591167 1.19925 24.6748 -5.78399 0 0 0 0 0 0 -5.58475 
2100 6 1.00254 0.557289 22.785 -6.47164 0 0 0 0 0 0 -11.9982 
1538 5 -0.456349 2.10288 23.0117 -7.73334 0 0 0 0 0 0 -4.683 
1646 5 -0.520624 2.99226 25.5365 -7.62704 0 0 0 0 0 0 -4.84227 
1616 5 -0.602476 3.58388 23.3705 -5.14788 0 0 0 0 0 0 -5.44004 
1490 5 -0.557991 1.1367 22.4555 -4.34833 0 0 0 0 0 0 -5.76433 
1849 6 1.06026 2.26663 24.1206 -3.93767 0 0 0 0 0 0 -12.5879 
2102 5 -0.607349 1.02967 25.5054 -3.3119 0 0 0 0 0 0 -5.50865 
2006 5 -0.609213 0.871679 25.1499 -0.832466 0 0 0 0 0 0 -4.9696 
251 2 0.717179 2.77094 23.3337 1.98954 0 0 0 -1.19707 -0.582437 -1.14329 -11.037 
1987 6 0.990459 2.91775 25.0192 -1.21695 0 0 0 0 0 0 -12.3009 
1959 5 -0.587623 2.29119 23.2724 -2.00933 0 0 0 0 0 0 -5.2234 
167 1 -0.675335 2.48791 25.0849 1.28315 0 0 0 1.57704 -3.11917 2.05259 -5.5983 
363 1 -0.574935 1.72974 22.8939 3.65539 0 0 0 0.294757 -0.240904 -2.71885 -6.00181 
478 2 0.685985 2.7653 25.7856 4.04327 0 0 0 0.206105 2.50788 0.0826365 -11.0131 
126 2 0.749818 0.545965 25.5479 1.08505 0 0 0 0.590733 0.835964 1.86069 -11.8224 
303 2 0.741454 0.0105365 23.8849 3.72331 0 0 0 1.16347 0.697274 -0.637542 -11.4359 
432 1 -0.658883 3.15168 24.2488 5.39419 0 0 0 -5.8905 -1.92513 2.31431 -6.16746 
942 3 -0.632408 1.88647 22.6426 10.3363 0 0 0 3.39389 2.46273 -5.38398 -6.84473 
1376 3 -0.519312 2.08232 25.6325 10.5369 0 0 0 0.631964 4.92341 -0.7524 -6.92777 
944 4 0.921013 2.60347 24.0475 8.86433 0 0 0 0.00256561 1.01132 -0.881614 -10.862 
439 1 -0.650132 2.75316 25.6681 7.81135 0 0 0 2.12302 0.173198 -2.89387 -6.30425 
1018 4 0.844022 0.997763 25.3209 6.79065 0 0 0 -0.968917 0.931811 -2.27737 -10.6955 
17 1 -0.606033 1.63726 22.7046 7.69409 0 0 0 -4.46796 1.89218 2.82739 -6.41594 
603 2 0.733655 2.43594 22.5066 5.84863 0 0 0 -0.317925 -1.62155 -0.201386 -10.9575 
129 1 -0.555185 0.0220977 25.0257 8.72871 0 0 0 -0.600107 -0.298992 2.20282 -6.48444 
1320 3 -0.709035 1.97374 25.5171 15.5424 0 0 0 4.08118 0.0894751 -0.211754 -7.5651 
1244 3 -0.613882 1.82372 24.2595 12.8997 0 0 0 -2.16026 -1.11134 1.40202 -6.97479 
1145 4 0.960998 2.98229 23.1473 11.8908 0 0 0 1.99195 1.14419 -0.20017 -10.13 
973 4 0.96999 0.778758 25.6046 13.8091 0 0 0 -0.51224 0.159216 0.191431 -9.74068 
1398 3 -0.606113 1.68649 22.7382 15.0282 0 0 0 -2.66711 7.59637 -4.3816 -7.32279 
2422 8 1.00313 1.55415 23.8723 16.7173 0 0 0 4.51924 -0.0487057 -1.97495 -9.39677 
1337 4 0.978967 0.284074 22.6217 13.6431 1 0 0 -2.83146 2.19426 -1.84304 -9.67627 
843 4 0.949737 3.6327 25.21 14.5473 0 0 0 -2.55614 -1.09283 2.40484 -9.96976 
2862 9 -0.557593 1.33111 25.1161 24.047 0 0 0 -0.465748 -2.14614 -1.94888 -7.13665 
1324 3 -0.567569 2.59806 24.8205 18.2626 0 0 0 -0.018345 2.96574 -1.08345 -7.42649 
2512 8 1.00641 2.52688 23.621 19.9091 0 0 0 -0.733608 0.511528 -0.497753 -9.62064 
2586 8 1.0422 2.78125 24.5822 22.9997 0 0 0 0.171443 -2.12152 1.61323 -9.38358 
2144 7 -0.575142 3.23421 22.8602 21.9263 0 0 0 -3.05287 1.74089 2.15046 -7.5475 
2427 7 -0.537273 1.09333 22.425 23.4998 0 0 0 7.46504 4.15811 0.938368 -7.01619 
2258 7 -0.596012 1.16255 24.381 21.4828 0 0 0 0.0281966 8.90467 -1.20177 -7.07054 
2199 7 -0.532038 3.27143 25.5546 20.8182 0 0 0 1.51473 4.44026 2.69091 -7.06098 
2605 7 -0.542025 0.209209 23.6366 19.3385 0 0 0 -5.84785 -3.05103 0.322564 -7.08403 
2739 9 -0.606256 0.183659 22.831 25.9345 1 0 0 0.4245 -4.49215 -0.107777 -7.49066 
3065 10 0.946368 2.23628 23.1978 30.1036 0 0 0 0 0 0 -9.69976 
3294 9 -0.543863 2.40174 24.6339 27.7811 0 0 0 0 0 0 -7.38977 
2938 10 0.946944 0.990618 24.6903 26.0025 0 0 0 1.43088 0.0974406 0.597516 -9.28775 
3318 9 -0.635687 0.918093 24.5499 30.415 0 0 0 0 0 0 -7.47441 
3279 9 -0.577227 3.63605 24.5548 25.2626 0 0 0 -2.18277 -0.354039 -3.66651 -7.306 
3222 9 -0.593997 2.39436 23.3842 32.4246 0 0 0 0 0 0 -6.99454 
3257 10 0.903509 0.341472 23.9049 32.3636 1 0 0 0 0 0 -9.33601 
1464 6 0.985423 1.8221 28.7819 -5.30082 0 0 0 0 0 0 -12.2871 
2080 5 -0.517346 2.03719 27.8618 -6.97495 0 0 0 0 0 0 -5.25802 
1474 5 -0.553037 0.256335 27.2166 -5.26244 0 0 0 0 0 0 -5.68098 
1722 6 0.948092 1.08304 26.0747 -7.20737 0 0 0 0 0 0 -11.0235 
2078 5 -0.521587 3.53963 26.4336 -5.07638 0 0 0 0 0 0 -5.6783 
2024 5 -0.607869 2.03669 28.1532 -3.27404 0 0 0 0 0 0 -5.88321 
1434 5 -0.592548 0.527644 27.7064 -0.180191 0 0 0 0 0 0 -5.66378 
531 2 0.641842 1.63761 28.6366 3.04506 0 -1 0 -2.0292 -1.43269 -1.35244 -10.7283 
2028 5 -0.635354 2.98911 26.9128 -0.88299 0 0 0 0 0 0 -5.37047 
1677 6 1.02051 0.654637 27.1188 -2.18933 0 0 0 0 0 0 -12.7765 
1518 6 0.94914 2.43345 28.7871 -0.143219 0 0 0 0 0 0 -12.1545 
656 1 -0.735178 3.15814 28.4048 1.62473 0 -1 0 -1.95898 -1.49994 6.62647 -5.77156 
5 1 -0.617084 0.829107 25.91 3.36218 0 0 0 1.8869 1.77427 7.18771 -6.13658 
272 2 0.712882 3.65537 26.5653 1.32527 0 0 0 -2.45972 1.54834 0.772499 -11.1905 
497 2 0.719524 3.05571 27.6571 8.01859 0 0 0 0.0316736 -1.44451 0.715532 -10.9039 
509 2 0.672145 0.648285 28.029 5.81876 0 0 0 1.31719 1.33141 1.73935 -10.5873 
689 1 -0.649361 2.36377 27.7202 4.73996 0 0 0 -1.78847 -5.25397 0.179477 -6.13876 
1044 3 -0.637264 2.07242 28.3228 9.93642 0 -1 0 -1.46835 1.47382 2.56405 -6.69676 
344 1 -0.659302 0.781894 27.6179 7.70633 0 -1 0 4.11641 -3.36314 -0.374643 -6.2721 
1332 4 0.915419 0.756638 29.4432 8.78282 0 -1 0 -1.64735 0.178785 2.78899 -10.8568 
130 1 -0.619084 2.82072 29.4294 6.86771 0 -1 0 2.8942 -0.829304 3.03079 -6.35941 
1374 3 -0.574214 2.26552 27.0437 13.0411 0 0 0 1.72968 -0.949235 2.88152 -7.32672 