ITEM: TIMESTEP
1185000
ITEM: NUMBER OF ATOMS
3344
ITEM: BOX BOUNDS pp pp ff
0.0000000000000000e+00 2.9570140178232556e+01
0.0000000000000000e+00 2.9525025648840820e+01
-8.8921683279491504e+00 4.4289169250706017e+01
ITEM: ATOMS id type q x y z ix iy iz vx vy vz c_eng 
1802 6 0.970464 1.72387 2.49826 -5.82381 0 0 0 0 0 0 -12.015 
1748 5 -0.553051 2.14226 1.01896 -7.10683 0 0 0 0 0 0 -5.44184 
2036 6 0.848348 0.080949 0.961802 -7.73073 0 0 0 0 0 0 -10.1144 
1735 5 -0.638753 0.00588188 2.78781 -7.00765 0 0 0 0 0 0 -5.70746 
1835 5 -0.589247 1.86164 1.03808 -4.37975 0 0 0 0 0 0 -5.19797 
1553 6 1.04719 0.843022 0.868311 -2.65107 0 0 0 0 0 0 -12.5353 
1851 5 -0.550038 2.86956 2.14795 -2.36357 0 0 0 0 0 0 -4.95708 
1662 5 -0.694784 1.36465 0.726482 -0.805768 0 0 0 0 0 0 -5.19873 
1877 5 -0.482581 1.02718 3.4782 -1.02956 0 0 0 0 0 0 -5.71672 
1879 6 0.941395 2.73467 2.50204 -0.383048 0 0 0 0 0 0 -12.1634 
111 1 -0.661414 0.500785 2.29824 2.32739 1 0 0 -7.65864 -2.55159 0.926669 -6.25321 
565 2 0.638017 0.249668 1.16967 0.735422 1 0 0 1.30287 -1.04561 0.881116 -10.6771 
507 2 0.669104 2.52875 2.34975 2.78276 0 0 0 -1.49338 -1.22809 -3.51768 -10.9107 
248 1 -0.642286 3.31047 0.737894 3.88768 0 0 0 -2.8012 1.89803 -0.702367 -6.23408 
122 1 -0.611662 1.5579 3.15298 5.28531 0 0 0 3.66985 4.36671 -1.16876 -6.24101 
430 1 -0.582923 1.49951 1.51298 10.0313 0 0 0 -0.258 -0.916083 -5.71396 -6.7833 
367 2 0.704027 1.48005 3.20628 7.45148 0 0 0 0.507638 0.123235 -0.01734 -10.6098 
484 1 -0.620124 0.708016 1.30825 7.18426 1 0 0 -2.95758 -0.98823 4.64166 -5.99696 
567 2 0.694995 1.90291 1.1878 5.47568 0 0 0 1.20169 -2.97473 -4.03371 -10.884 
1422 4 0.974419 3.49188 3.25887 10.6318 0 0 0 0.840307 -1.06157 -1.51846 -10.7244 
1332 4 0.922902 0.826976 0.00773929 8.81738 0 0 0 -2.84271 -0.241297 0.932096 -10.9185 
88 1 -0.640718 0.0918197 0.0447742 4.75354 0 1 0 -1.95521 -0.422551 1.17943 -6.28463 
1098 4 0.955753 1.13273 1.42828 12.1606 0 0 0 -0.531161 1.92192 -0.791826 -10.0712 
1143 3 -0.656854 2.40415 3.37704 15.7303 0 0 0 -0.0793774 2.17403 5.00888 -7.49238 
1117 4 0.969051 3.50683 3.49669 13.9103 0 0 0 -0.176011 -0.281757 -0.088659 -10.13 
1121 3 -0.462499 1.11152 0.598288 14.8676 0 0 0 2.12176 0.615984 -2.9202 -6.97217 
1271 3 -0.618372 2.24695 3.25567 12.2058 0 0 0 -5.07142 -6.404 -8.31991 -6.9846 
1175 4 0.968555 2.77739 1.05022 15.9094 0 0 0 0.167094 -1.67491 2.07145 -9.65869 
1339 3 -0.579196 2.68667 0.425537 12.3515 0 0 0 -2.30313 -1.75057 -0.84843 -6.72973 
840 3 -0.587193 0.266175 2.93484 13.6924 1 0 0 0.030402 2.93729 -1.86516 -7.15098 
1173 3 -0.572606 1.26273 3.13967 20.4157 0 0 0 -1.4265 1.87943 1.0867 -7.59833 
2397 7 -0.569623 0.338337 0.455312 20.8794 1 0 0 -3.27261 0.145886 11.7224 -6.71709 
2296 7 -0.560503 1.02801 2.19534 22.9227 0 0 0 -1.17096 0.446052 -1.57694 -7.07757 
2507 7 -0.639776 3.27391 0.956892 22.8505 0 0 0 -4.322 -4.3566 -0.0255812 -7.34527 
2398 8 1.02973 2.03508 1.1283 21.3053 0 1 0 -0.520532 0.498415 2.57478 -9.45305 
2500 8 1.00098 0.713083 2.63755 18.4712 1 0 0 -0.85709 -0.590545 0.299539 -9.56332 
1147 3 -0.56327 2.3404 1.66267 17.8409 0 0 0 0.662211 0.377778 8.0436 -7.35924 
2147 7 -0.623555 3.74942 2.20751 20.6694 0 0 0 2.96991 -4.87898 3.63021 -7.37187 
3018 10 1.05377 1.12258 1.51407 27.6141 0 0 0 0.357347 0.199999 0.187289 -9.69897 
3067 9 -0.674613 3.00755 1.46037 30.3488 0 0 0 0 0 0 -7.01929 
3041 9 -0.495622 1.48371 3.22164 28.6783 0 0 0 0 0 0 -6.80948 
3191 9 -0.579047 1.83617 3.26456 25.6726 0 0 0 0.152129 -1.53129 -2.23946 -7.55576 
2951 9 -0.589646 0.561047 0.922082 25.8543 0 0 0 -3.26569 3.69735 -3.73593 -7.24571 
3143 9 -0.503558 0.431341 0.958108 29.5551 1 0 0 0 0 0 -6.63427 
3095 10 0.985103 1.6272 2.8966 30.8277 0 0 0 0 0 0 -9.83023 
2309 8 1.00422 2.02279 1.51571 24.3949 0 0 0 -1.3723 -0.0594191 -1.11188 -9.39165 
2814 9 -0.599054 3.52295 2.11506 27.4393 0 0 0 4.24742 0.476391 -0.927646 -7.51961 
3190 9 -0.491072 0.78648 1.7716 32.0981 1 0 0 0 0 0 -6.10527 
1684 6 0.747759 0.445118 4.47489 -7.87932 0 0 0 0 0 0 -9.59608 
1477 6 0.98083 3.45931 7.11234 -5.47067 0 0 0 0 0 0 -12.2534 
1857 5 -0.515983 2.03119 5.78114 -5.97954 0 0 0 0 0 0 -5.32507 
1590 6 1.07137 0.508431 5.42015 -4.74455 0 0 0 0 0 0 -12.1592 
1975 5 -0.439256 2.43534 3.78439 -7.65315 0 0 0 0 0 0 -5.0036 
1821 6 0.993528 3.36823 4.02503 -3.5146 0 0 0 0 0 0 -12.3215 
1825 5 -0.556285 1.50809 3.71812 -4.38085 0 0 0 0 0 0 -5.75602 
1909 5 -0.637529 0.0620885 7.23681 -4.24721 0 0 0 0 0 0 -5.43019 
1818 5 -0.472644 2.15356 5.83683 -2.82165 0 0 0 0 0 0 -5.63541 
339 1 -0.638485 2.50724 4.08622 1.39545 0 0 0 0.85655 -0.898956 -2.82022 -5.71275 
1896 6 0.956797 3.05594 5.78302 -0.958883 0 0 0 0 0 0 -11.8422 
1641 5 -0.659455 1.11599 5.9908 -0.226154 0 0 0 0 0 0 -5.58982 
1664 6 0.999789 0.000929012 6.48958 -1.72773 0 0 0 0 0 0 -12.5082 
400 2 0.66532 2.88527 5.90991 2.23197 0 0 0 1.88154 -0.162373 0.177088 -10.6085 
428 2 0.683126 0.453045 4.4881 0.874029 0 0 0 0.338978 0.782801 1.58765 -11.2952 
579 1 -0.652395 1.27694 5.51297 3.40312 0 0 0 9.34631 1.291 5.8723 -6.21365 
114 2 0.715438 0.118599 3.84656 3.87872 0 0 0 -1.75173 0.235219 0.217297 -11.0617 
580 1 -0.626451 3.6119 6.73606 4.31691 0 0 0 3.8645 -2.14303 2.04315 -6.2853 
202 2 0.671655 0.397535 5.74928 6.55207 1 0 0 -0.0332413 0.13332 0.546231 -10.5965 
142 1 -0.697861 2.45306 5.41811 6.80948 0 0 0 -0.638398 -1.93476 3.30847 -6.53378 
980 4 0.899649 1.63231 5.55992 9.48721 0 0 0 1.38748 -1.94854 0.433974 -10.7626 
310 2 0.714479 3.15538 4.77873 4.98583 0 0 0 0.498172 -0.711768 -0.620338 -11.0771 
55 1 -0.656362 2.61194 3.95962 8.98526 0 0 0 0.11097 3.36234 1.42577 -6.70207 
2393 8 1.00275 0.675397 3.95313 15.5477 0 0 0 -1.16416 -1.07883 0.411325 -9.78375 
891 3 -0.525048 0.681027 6.23261 16.3355 0 0 0 -3.68014 0.601834 0.989498 -6.96878 
37 1 -0.603771 1.85422 5.9534 11.3399 0 0 0 1.50225 -0.949918 8.41713 -6.55084 
1114 3 -0.610336 1.56157 5.32995 14.0405 0 0 0 0.106646 4.31308 -3.80646 -6.92958 
1192 4 1.07235 2.77894 6.65197 14.8579 0 0 0 1.27063 -1.96796 0.686706 -10.1144 
762 3 -0.625507 3.34569 5.88838 16.6276 0 0 0 0.989561 -4.32279 -0.683896 -7.2767 
886 4 1.05152 0.599694 4.60647 12.3964 0 0 0 1.94449 0.847236 -0.121636 -10.3517 
2304 8 1.02458 0.49565 4.92523 21.4327 1 0 0 0.902958 -2.47127 0.2844 -9.33529 
2521 7 -0.580832 2.24122 5.89442 20.4309 0 0 0 -2.94695 1.42673 0.679245 -7.52258 
2202 7 -0.528895 1.80237 4.77171 23.0199 0 0 0 0.265347 4.46581 1.75946 -7.3883 
937 3 -0.654865 2.58103 4.17573 18.3698 0 0 0 1.2699 0.981361 -2.69729 -6.89119 
2551 8 1.00859 1.65905 5.90357 18.2089 0 0 0 0.33831 -0.745331 -0.610352 -10.0071 
2618 8 0.99864 3.21563 4.01689 20.2313 0 0 0 -0.0985654 -0.700949 -1.15728 -9.66026 
2151 7 -0.594341 -0.0341443 4.46652 18.1923 1 0 0 1.23727 -4.43766 0.99248 -7.45587 
2900 10 1.00861 0.793943 4.71276 24.7539 0 0 0 0.32936 -0.689037 0.130333 -9.37748 
3034 9 -0.647265 2.77158 4.61093 30.302 0 0 0 0 0 0 -7.0624 
3344 9 -0.523671 3.47829 5.55159 25.4067 0 0 0 -2.06766 0.267488 -3.80628 -7.24561 
3073 9 -0.49611 1.63097 5.59729 27.4666 0 0 0 -0.39348 2.61038 0.684432 -6.82896 
2693 10 0.97599 3.07865 6.2187 28.8329 0 0 0 -0.594332 1.41597 -1.15894 -9.74937 
3125 9 -0.592548 0.142163 6.05805 29.6391 0 0 0 0 0 0 -7.45519 
3184 9 -0.530649 1.11703 6.75657 24.7214 1 0 0 3.51443 -0.00263986 1.55973 -7.14657 
3146 10 1.0211 0.658326 7.28171 26.4901 0 0 0 2.89572 -0.165107 0.81877 -9.37167 
3093 9 -0.582012 0.670595 4.43908 31.9083 0 0 0 0 0 0 -6.63529 
3136 9 -0.595392 0.779836 7.2532 32.4875 0 0 0 0 0 0 -6.49427 
2857 9 -0.539016 3.6089 6.0554 32.4556 0 0 0 0 0 0 -6.37589 
2880 10 0.932872 1.54455 6.02245 31.2853 0 0 0 0 0 0 -9.7446 
1668 5 -0.47729 1.64007 10.6642 -7.73594 0 0 0 0 0 0 -4.66463 
1710 6 0.98017 3.38069 9.88179 -7.55904 0 0 0 0 0 0 -11.3146 
1995 5 -0.560587 1.79102 8.2684 -5.98123 0 0 0 0 0 0 -5.37063 
1930 6 0.872374 0.671636 7.73777 -7.51036 0 0 0 0 0 0 -10.9755 
1697 5 -0.558102 3.30906 10.3858 -5.66731 0 0 0 0 0 0 -5.17315 
1842 5 -0.40109 2.53416 8.15041 -8.52032 0 0 0 0 0 0 -4.38501 
2066 6 1.02485 1.28878 8.78292 -4.10193 0 0 0 0 0 0 -12.3175 
1595 5 -0.545084 3.06435 8.25955 -3.57222 0 0 0 0 0 0 -5.368 
2025 5 -0.59021 1.63263 10.6162 -3.32851 0 0 0 0 0 0 -5.4891 
1628 5 -0.648067 3.03587 10.3973 -0.960219 0 0 0 0 0 0 -5.62374 
1920 5 -0.574616 0.902677 8.3182 -2.0179 0 0 0 0 0 0 -5.82582 
1504 6 0.961141 1.05013 10.0727 -1.02812 0 0 0 0 0 0 -12.0274 
380 2 0.663771 0.493028 7.79607 0.970012 0 0 0 -1.02406 -0.865374 3.60272 -11.0011 
423 1 -0.622936 0.654286 9.89613 0.873884 0 0 0 -3.82533 -2.77734 1.23914 -5.87288 
137 2 0.670847 1.49265 7.43023 3.96118 0 0 0 -1.62458 -1.25153 3.12763 -10.5449 
663 1 -0.562507 2.5357 7.75966 1.23772 0 0 0 -0.792407 2.09778 0.81146 -6.18802 
530 2 0.700631 3.57779 9.67582 0.961067 0 0 0 0.265173 1.48974 0.869161 -11.4478 
345 1 -0.591975 1.965 9.45594 3.69263 0 0 0 3.59152 4.81353 -0.175547 -6.34207 
213 2 0.683716 0.0381236 10.0841 2.86133 0 0 0 0.430448 0.362001 -1.37493 -10.9283 
421 1 -0.672842 0.077955 8.18647 10.7268 0 0 0 4.10309 0.336521 3.04801 -7.21727 
1085 3 -0.628612 0.873726 9.7675 8.11805 0 0 0 0.292437 -2.33935 -3.38789 -6.85347 
100 1 -0.653345 0.832377 7.75219 5.82122 0 0 0 -6.08772 -1.42739 -1.76943 -6.72506 
614 2 0.727477 1.46279 10.0418 6.03329 0 0 0 -1.00013 -0.0921146 -0.0231969 -11.0757 
1006 4 0.902982 2.81601 9.83898 9.18648 0 0 0 -1.02902 -0.365572 -0.667808 -10.8654 
480 1 -0.672555 2.3953 7.51502 8.86726 0 0 0 1.19181 3.09805 5.64612 -6.88177 
1362 4 0.913605 0.0802503 8.05608 8.76331 0 0 0 0.508785 0.00905995 1.1704 -10.9494 
577 1 -0.667328 3.47104 9.22522 6.22366 0 0 0 0.110796 -3.62971 2.42758 -6.65217 
581 2 0.649556 2.82271 7.46795 6.79061 0 0 0 -1.00621 1.88042 0.383899 -10.4503 
474 1 -0.568376 3.11365 7.6576 13.2064 0 0 0 -1.28713 -0.630166 -3.17155 -6.68016 
993 3 -0.588884 2.0409 8.33583 15.692 0 0 0 -3.77328 -1.65469 -13.7042 -7.11059 
1115 3 -0.597107 0.626693 10.0405 16.9233 1 0 0 6.70684 -4.90461 -1.9157 -7.09999 
800 4 1.04863 1.06653 9.80011 14.8209 0 0 0 1.33176 0.698356 -1.27704 -10.086 
1334 3 -0.645306 1.35244 10.7407 13.0497 1 0 0 -0.731463 2.18599 -1.12152 -6.98705 
922 4 0.980784 1.81368 7.78373 11.7848 0 0 0 1.61833 -1.01899 -1.73035 -10.3705 
780 4 1.04367 3.10557 11.0455 12.2952 0 0 0 -1.61211 1.19858 -1.51259 -10.4827 
1321 3 -0.44289 2.87959 10.7744 15.5832 0 0 0 4.46446 -0.930237 -4.68837 -6.67646 
1291 3 -0.568971 0.411239 8.26356 13.4694 0 0 0 0.847326 -1.89031 -3.96747 -7.13612 
1024 4 0.921145 0.105412 10.2378 11.5231 1 0 0 -0.86898 -0.857358 -0.342016 -10.424 
2178 8 1.01158 2.24695 8.97626 17.6803 0 0 0 -1.4859 2.12616 -0.380529 -10.0161 
1138 3 -0.649801 2.38638 9.57894 11.0242 0 0 0 4.32758 0.757296 -5.33223 -6.84113 
2549 8 0.997151 2.55636 8.4314 23.0064 0 0 0 -1.55855 -0.876096 -2.17022 -9.14893 
1216 3 -0.657485 0.743347 7.72429 18.3886 0 0 0 -1.62344 11.0975 -8.58207 -7.36078 
2205 7 -0.605424 2.65831 8.7619 20.8064 0 0 0 1.00416 2.03496 6.43065 -7.09437 
2177 7 -0.57924 0.763509 7.55993 22.1416 1 0 0 3.58073 -3.85071 -1.82625 -6.98588 
2443 7 -0.45688 1.24459 9.98829 23.0765 1 0 0 1.39993 5.67181 2.61983 -6.57219 
2270 7 -0.584533 0.364384 9.84988 19.8791 1 0 0 5.70017 6.46399 -1.22116 -7.14261 
2417 8 1.03501 0.456721 7.98729 20.3564 0 0 0 -1.62827 0.748906 0.541596 -9.61309 
2256 8 0.994004 2.07199 10.6588 20.6882 0 0 0 0.816667 -0.200102 -1.04197 -9.56962 
924 3 -0.625156 2.52808 10.7362 18.6849 0 0 0 -2.86204 5.8896 8.41002 -7.45824 
2306 7 -0.551146 3.44331 10.7517 22.2575 0 0 0 9.99215 -1.91728 2.8502 -7.05483 
1210 3 -0.598813 3.24649 7.50975 18.6332 0 0 0 -10.8203 1.14427 1.14529 -6.94789 
3121 9 -0.631042 0.152541 8.92295 30.2329 1 0 0 0 0 0 -7.3175 
3058 9 -0.488639 3.35268 8.2702 24.8112 0 0 0 0.389888 1.62077 -1.98017 -7.1157 
2913 9 -0.572686 3.08295 10.5455 28.1553 0 0 0 1.92624 -0.487408 3.34021 -7.48124 
3005 9 -0.556688 2.08653 10.3024 25.8076 0 0 0 0.486174 1.64498 -4.56133 -7.1366 
3211 9 -0.600437 1.99718 8.11214 27.6543 0 0 0 -1.02791 1.86418 3.61215 -7.26086 
2926 10 1.03732 3.57003 9.0274 26.5355 0 0 0 2.20148 1.23861 -0.0857586 -9.30183 
3282 10 1.01651 1.92548 9.25733 29.2311 0 0 0 0 0 0 -9.69425 
2811 9 -0.677732 2.5496 7.49206 30.2657 0 0 0 0 0 0 -7.49031 
3241 9 -0.585714 2.09838 10.6466 30.7246 0 0 0 0 0 0 -7.22644 
2884 9 -0.578939 0.0448004 9.90943 27.8732 0 0 0 0.188228 -3.7219 1.53285 -7.19592 
2844 9 -0.515254 2.70624 9.04499 32.7021 0 0 0 0 0 0 -6.121 
2720 10 0.961676 0.586088 9.22239 32.092 0 0 0 0 0 0 -9.87313 
2980 9 -0.557396 0.97063 10.8963 33.3026 0 0 0 0 0 0 -6.31367 
1493 5 -0.590057 2.35233 13.0136 -5.98123 0 0 0 0 0 0 -5.5149 
1511 6 0.957294 1.09751 12.4637 -7.27982 0 0 0 0 0 0 -10.8515 
1536 6 1.01985 3.55821 14.55 -5.53605 0 0 0 0 0 0 -12.4642 
1840 5 -0.658569 0.144937 14.2981 -7.28475 0 0 0 0 0 0 -5.34706 
1539 5 -0.587407 0.62718 13.017 -4.04772 0 0 0 0 0 0 -5.43719 
1484 6 1.06966 2.91102 11.6847 -4.45009 0 0 0 0 0 0 -12.3958 
1939 5 -0.572723 2.99687 12.85 -2.9592 0 0 0 0 0 0 -5.05013 
1437 6 1.00374 0.701027 13.5764 -2.07916 0 0 0 0 0 0 -12.5918 
2018 6 1.00605 3.42548 12.3162 -1.12582 0 0 0 0 0 0 -12.4828 
1764 5 -0.706469 1.58101 12.9977 -0.521059 0 0 0 0 0 0 -5.33026 
586 1 -0.637819 1.99577 13.3814 2.99244 0 0 0 3.60583 -3.09099 0.108568 -6.05444 
146 2 0.674867 1.25844 12.1705 1.16851 1 0 0 -0.863696 -1.40418 -2.63844 -10.9518 
398 2 0.711454 2.86723 11.4533 3.51902 0 0 0 -1.55088 0.904785 -0.891375 -10.933 
697 1 -0.687496 3.15122 11.5263 1.48307 0 0 0 1.27989 1.66799 0.724024 -6.05099 
665 2 0.689754 0.32465 12.9446 4.1598 1 0 0 -1.36842 -2.64085 -1.41412 -10.9774 
807 4 0.932865 1.03809 12.4042 9.28923 0 0 0 0.676494 -1.79342 -0.638483 -10.8003 
218 1 -0.63165 0.407127 12.9492 7.48251 0 0 0 -4.50379 -1.1942 -2.30643 -6.57218 
416 2 0.722407 2.18339 13.2776 6.62576 0 0 0 0.975865 0.79294 0.569279 -10.9128 
572 1 -0.628952 1.89139 11.7705 5.23421 0 0 0 -0.151701 1.82821 -2.62488 -5.91218 
690 1 -0.624924 2.83867 11.8052 8.24232 0 0 0 1.46578 4.91356 10.26 -6.73998 
491 1 -0.657835 0.921925 14.4333 10.0374 0 0 0 4.41045 -1.87583 2.3324 -6.75072 
39 1 -0.642301 3.22777 14.7191 8.06472 0 0 0 -3.79285 0.343925 -0.666571 -6.80625 
956 3 -0.634105 2.46885 12.4391 10.7122 0 0 0 -4.28326 0.291099 -0.239235 -6.69609 
733 4 1.00105 0.855679 12.8781 13.7229 0 0 0 0.981962 -0.338992 -0.549376 -9.90566 
789 3 -0.536926 1.58026 13.1683 15.6398 0 0 0 4.74468 2.53809 -0.941027 -7.27488 
2408 8 0.98092 1.01683 12.0151 17.3637 0 0 0 -4.2485 -0.864803 0.765308 -9.61098 
905 3 -0.562579 3.16278 12.7075 13.3491 0 0 0 5.01406 1.90762 0.0346953 -6.90008 
832 4 0.979601 2.51569 14.457 11.2967 0 0 0 -1.5647 0.561378 -0.211723 -10.6815 
1136 3 -0.581641 1.22306 14.7223 13.0452 0 0 0 1.65655 3.57526 -4.74214 -7.07352 
1235 3 -0.630356 3.16198 13.1358 17.9396 0 0 0 0.5851 -4.80562 0.459383 -7.34304 
1060 3 -0.552706 2.5047 12.6839 20.8956 0 0 0 -1.04289 1.64531 -0.308377 -7.36265 
2260 8 0.944488 2.53352 14.119 19.4481 0 0 0 0.918946 -0.940137 -0.591389 -9.48418 
2506 8 0.930055 0.939519 13.3458 22.0266 1 0 0 1.87556 0.447026 2.6928 -9.35553 
2242 7 -0.586567 2.6359 13.3714 23.6919 0 0 0 5.33415 -1.588 0.152346 -7.47317 
1274 3 -0.592084 0.591046 13.0428 19.1067 0 0 0 -0.393747 1.3305 2.31804 -7.42553 
2570 8 1.01946 2.31573 11.379 24.0644 0 0 0 1.95698 -2.7775 0.556666 -9.42748 
2453 7 -0.570062 0.534172 12.2007 24.21 0 0 0 0.36678 3.03806 6.46568 -7.35662 
2709 9 -0.640649 0.811006 12.315 28.7981 0 0 0 -9.20818 -4.63725 -2.27221 -7.6458 
2876 9 -0.587915 2.33688 12.8387 26.3905 0 0 0 -7.31311 -0.899026 0.717284 -7.31426 
2757 10 1.00837 1.13582 14.3936 24.9507 0 0 0 -1.12957 1.04519 2.51891 -9.22838 
2727 10 1.01581 0.989655 11.537 27.0169 0 0 0 -0.151363 0.41091 0.813757 -9.52038 
2700 10 0.968545 2.69099 12.3645 29.6868 0 0 0 0 0 0 -9.70159 
3056 9 -0.552821 0.494644 14.5086 26.8892 0 0 0 -6.76227 2.35725 8.61025 -7.3176 
3062 9 -0.625736 2.19484 14.4667 29.8338 0 0 0 0 0 0 -7.73913 
2979 9 -0.588616 3.20854 12.9195 33.1985 0 0 0 0 0 0 -6.38918 
2755 9 -0.60204 0.961392 12.9627 31.4267 0 0 0 0 0 0 -6.93398 
3083 10 0.921571 2.04117 14.2764 32.4858 0 0 0 0 0 0 -9.1511 
3194 9 -0.515169 0.330765 14.1489 33.6452 0 0 0 0 0 0 -5.9713 
3234 10 0.984879 2.81056 11.0764 32.5951 0 0 0 0 0 0 -9.44657 
1794 5 -0.498636 0.0641704 16.4771 -5.53735 0 0 0 0 0 0 -5.96515 
1660 5 -0.568188 2.53225 15.538 -7.05451 0 0 0 0 0 0 -5.29375 
1494 5 -0.516129 1.24782 17.709 -8.24278 0 0 0 0 0 0 -4.63792 
1541 6 0.891427 0.928471 15.882 -8.1644 0 0 0 0 0 0 -10.4241 
1868 6 0.968362 3.57756 17.2682 -7.26231 0 0 0 0 0 0 -11.9721 
1429 5 -0.609009 2.46733 18.2019 -5.89243 0 0 0 0 0 0 -5.45381 
1846 5 -0.560335 2.20601 15.3031 -4.18135 0 0 0 0 0 0 -5.89871 
2035 6 0.958796 1.45137 17.2827 -4.38656 0 0 0 0 0 0 -12.3602 
1513 5 -0.685426 3.21759 17.5545 -3.29097 0 0 0 0 0 0 -5.3611 
1867 6 0.980888 3.45903 15.5983 -2.53379 0 0 0 0 0 0 -12.3391 
1890 5 -0.673102 0.509281 17.8423 -2.34134 0 0 0 0 0 0 -5.39314 
1813 5 -0.640626 3.21839 16.8518 -0.757449 0 0 0 0 0 0 -5.43062 
1978 5 -0.592191 0.981775 15.4338 -1.62043 0 0 0 0 0 0 -5.43935 
311 2 0.620659 2.27226 15.2463 -0.0499907 0 0 0 3.66 -0.835249 1.13554 -10.7812 
77 1 -0.677766 1.53489 17.3769 2.21989 0 0 0 -0.326317 3.72441 -4.52614 -5.92723 
2050 6 0.924997 2.30982 18.3007 -1.79829 0 0 0 0 0 0 -11.858 
147 2 0.663043 1.78543 18.1981 3.92495 0 0 0 -2.41558 1.24521 1.88266 -10.5258 
360 2 0.657369 1.76531 15.4416 2.90482 0 0 0 -1.12508 1.11591 -0.00915007 -10.486 
466 2 0.677786 3.58629 17.6959 1.45717 0 0 0 -1.57861 0.506265 0.320774 -11.0799 
256 1 -0.619619 3.62126 16.2262 3.63644 0 0 0 3.70657 -0.540037 -3.44311 -5.91809 
609 1 -0.654782 1.9238 14.9926 5.44218 0 0 0 1.25136 -4.08054 -1.08333 -6.623 
243 2 0.651469 3.20825 16.528 6.4718 0 0 0 -0.838911 1.70302 1.58379 -10.6053 
637 1 -0.592444 0.247159 18.1026 5.67233 0 0 0 1.05009 0.892505 0.673531 -6.68155 
837 4 0.770298 1.11504 15.4399 8.24622 0 0 0 -0.879958 0.437556 -0.0482308 -10.4022 
790 3 -0.623062 2.56603 16.3847 10.4727 0 0 0 3.09873 0.58078 -0.0518698 -6.68838 
588 1 -0.601203 1.71133 17.4696 7.94476 1 0 0 -3.51708 0.743192 -6.64156 -6.72052 
1268 4 0.941501 1.91934 18.1649 9.83708 0 0 0 1.49724 -0.147881 1.81231 -10.7951 
499 2 0.651027 0.141267 15.9822 5.34834 0 0 0 0.411217 1.80953 -2.0519 -10.5345 
131 1 -0.680834 3.10249 18.3452 5.57967 0 0 0 -0.767424 5.49513 -4.05017 -6.58027 
1346 4 0.988282 0.810376 16.605 13.2409 0 0 0 -0.766699 0.0127223 0.218376 -9.99043 
725 3 -0.644605 0.692202 17.9286 11.6365 0 0 0 0.22074 5.5134 2.88312 -7.19714 
1275 3 -0.663291 1.23934 16.5957 15.1787 0 0 0 -7.24655 1.17344 -2.74876 -7.56995 
876 3 -0.552613 0.111975 14.9506 17.1537 1 0 0 -2.07956 -1.81695 -1.9147 -7.10385 
1034 3 -0.60019 2.86361 18.0531 13.2292 0 0 0 -4.82577 -2.71248 2.52092 -7.44965 
2212 8 1.04041 3.10027 17.6954 15.2863 0 0 0 0.0925562 0.769006 -2.05639 -9.30445 
2271 8 0.962823 1.83621 14.9672 16.1972 0 0 0 -0.266641 0.36846 -1.98255 -9.53853 
759 3 -0.550066 2.4808 18.3189 16.9595 0 0 0 -4.71414 -4.08298 0.853601 -7.14895 
906 3 -0.584129 3.67014 15.4678 12.7331 0 0 0 -4.35435 1.37041 -0.291675 -6.58789 
1142 3 -0.614947 3.6976 15.3375 15.4391 0 0 0 -1.95436 -3.03025 5.76397 -7.5157 
2614 7 -0.636451 3.1099 17.4429 22.9269 0 0 0 0.294405 -2.66183 -1.17652 -7.76051 
2509 8 1.03831 1.98346 17.4077 18.7597 0 0 0 -1.55549 1.78435 1.49896 -9.2984 
2529 7 -0.584247 1.29566 15.5821 23.2243 0 0 0 4.01904 0.199061 -1.12531 -7.61291 
2201 8 0.97098 3.26176 15.5911 22.3352 0 0 0 -2.03804 2.41969 -0.43815 -9.42654 
1109 3 -0.624514 2.53224 15.7172 17.9855 0 0 0 1.56095 1.83914 -0.721295 -7.55699 
2420 7 -0.510085 1.43411 17.9338 20.7693 0 0 0 7.88226 7.85861 6.2485 -7.34 
1186 3 -0.609493 1.36784 15.1273 20.6534 0 0 0 -7.42969 0.59072 -2.14476 -7.34862 
2566 8 1.00486 1.70665 17.9218 24.2118 0 0 0 -3.11979 1.85159 1.6441 -9.41369 
915 3 -0.632689 0.174983 17.5129 17.9694 0 0 0 3.01367 -8.37916 -2.48188 -7.42574 
2440 7 -0.631965 0.104473 18.0294 23.0175 1 0 0 -4.58721 -5.95067 2.96017 -7.41462 
2513 8 1.06827 0.09824 16.4012 21.7078 0 0 0 -0.23743 0.960751 0.264558 -9.38056 
3096 9 -0.467136 2.96289 15.4512 25.7118 0 0 0 -1.10425 -3.15015 -1.01216 -7.19855 
2645 9 -0.584223 1.53393 16.9141 27.9852 0 0 0 4.84422 0.137004 -2.14539 -7.2928 
2710 9 -0.535059 0.465273 17.0498 25.5832 0 0 0 -10.4594 -1.1518 2.25772 -7.26659 
2729 9 -0.654433 2.711 17.4533 30.2958 0 0 0 0 0 0 -7.01347 
2663 9 -0.636631 2.76279 18.1484 25.8458 0 0 0 -3.12004 -6.43045 -5.14299 -7.51956 
3251 10 0.997224 1.06668 16.6309 29.982 0 0 0 0 0 0 -9.75752 
2779 10 0.99408 3.5126 17.7645 28.3458 0 0 0 0 0 0 -9.83072 
2752 10 0.931698 2.41924 14.7842 27.6498 0 0 0 -2.43063 -0.826924 -0.748709 -9.51438 
3029 9 -0.51471 3.44889 15.5924 32.242 0 0 0 0 0 0 -6.52352 
3106 9 -0.629529 0.521412 16.2454 31.8065 0 0 0 0 0 0 -7.43845 
3158 10 0.817071 0.315818 18.1762 32.4367 1 0 0 0 0 0 -8.58981 
3266 10 0.893257 3.66222 18.3755 31.6653 0 0 0 0 0 0 -9.12595 
1972 6 1.03578 0.887939 19.1814 -7.0092 0 0 0 0 0 0 -12.1033 
1967 5 -0.588935 2.07 20.7903 -6.40046 0 0 0 0 0 0 -5.5698 
1979 5 -0.55248 0.528887 19.2677 -4.62812 0 0 0 0 0 0 -5.71302 
1811 5 -0.278075 0.696673 20.3445 -8.59578 0 0 0 0 0 0 -3.70671 
1447 5 -0.444895 3.60076 18.9148 -8.3861 0 0 0 0 0 0 -4.55019 
1658 6 0.984826 2.04416 20.7055 -4.37171 0 0 0 0 0 0 -12.3131 
1619 5 -0.675885 1.99684 20.1024 -2.38092 0 0 0 0 0 0 -5.47256 
103 1 -0.566983 1.59044 20.0975 3.23616 0 0 0 2.89325 -1.39581 1.58885 -6.22111 
1918 6 1.02347 2.04689 21.6229 -1.14409 0 0 0 0 0 0 -12.4716 
1435 5 -0.635428 0.0227767 21.8021 -1.77234 0 0 0 0 0 0 -5.63035 
208 1 -0.614475 2.08665 21.8118 0.905693 0 0 0 -3.20272 -13.4619 2.51062 -5.62731 
260 1 -0.590968 2.75917 19.3244 0.26865 0 0 0 1.60478 0.267436 -1.10207 -5.92533 
407 2 0.698912 3.47557 20.8496 3.77505 0 0 0 3.51997 0.24734 1.99869 -10.7747 
280 2 0.671716 0.34768 21.3392 1.92851 0 0 0 -1.30948 1.11169 -0.398896 -10.9929 
653 2 0.635496 0.76212 18.5502 0.516819 0 0 0 -0.558429 1.85561 -0.969479 -10.824 
263 2 0.736959 1.59485 19.5054 6.83209 1 0 0 0.781686 0.949938 1.37478 -10.9146 
1396 4 0.886944 0.535693 21.4284 9.13182 0 0 0 -1.82606 -0.940563 -3.16399 -10.4469 
532 1 -0.638944 0.997962 21.0897 5.91615 0 0 0 5.5479 -2.69823 2.01825 -6.24112 
879 4 0.846549 3.41732 20.9897 9.81205 0 0 0 -0.307434 1.55667 -2.0197 -10.3557 
834 3 -0.591082 3.21078 20.3558 7.97314 0 0 0 4.26005 0.359089 -0.794055 -6.83398 
1263 3 -0.599247 1.49574 20.1268 10.4332 0 0 0 -8.05716 4.58281 4.01 -6.82231 
590 1 -0.607156 0.058366 19.6967 8.16785 0 0 0 -3.26614 4.72358 0.539575 -6.48779 
786 3 -0.528288 3.1898 20.9616 16.5796 0 0 0 0.406123 3.03768 -4.97548 -6.95165 
1283 4 1.01422 3.40895 21.7411 14.7186 0 0 0 -0.367613 -2.65625 -0.425821 -9.79005 
912 3 -0.638438 2.87912 21.2093 12.6337 0 0 0 1.74695 0.637792 -2.82896 -7.40096 
1328 3 -0.541809 1.51857 19.6716 14.8021 1 0 0 -4.31876 2.5521 5.17642 -7.17126 
954 4 0.980568 1.74454 19.6383 12.653 0 0 0 -0.899324 -1.51461 -1.37815 -10.0563 
1214 4 1.02859 1.30588 20.0263 16.7928 0 0 0 0.474339 -1.00861 -0.369072 -9.51181 
2222 7 -0.499353 0.458162 21.9479 17.2234 1 0 0 7.30162 3.53106 0.405544 -7.03511 
749 3 -0.582355 0.00270211 20.7506 12.8786 1 0 0 -4.73328 -6.45124 -7.08568 -7.12325 
2494 7 -0.637665 1.02641 21.3341 21.0176 0 0 0 -4.25975 1.96432 -1.79962 -7.47724 
2390 8 0.979844 3.02075 21.3879 23.3396 0 0 0 2.02687 -1.1479 0.504563 -9.41742 
2474 7 -0.627483 3.15143 20.0535 21.697 0 0 0 0.497967 -1.03583 1.42236 -7.58581 
2305 8 0.987437 0.739262 19.677 21.8252 0 0 0 0.951762 0.569442 -2.13092 -9.60514 
2182 8 0.995329 2.98418 20.2729 19.7623 0 0 0 -0.256789 0.7913 0.595113 -9.42361 
2208 7 -0.624465 1.65479 19.9671 23.7878 0 0 0 7.51017 0.345759 2.22979 -7.49511 
815 3 -0.60663 1.13245 19.8415 18.8924 0 0 0 -0.039625 5.1125 -0.0261988 -7.40901 
2636 8 0.962559 0.100943 21.5445 19.1696 1 0 0 0.897844 -0.499305 0.498576 -9.60059 
2187 7 -0.459438 3.74191 18.4509 19.3645 0 0 0 -2.38954 -0.16286 5.28666 -7.01985 
3175 9 -0.66137 3.29954 21.1426 30.7938 0 0 0 0 0 0 -7.76248 
2874 10 0.900206 1.44599 19.8592 30.1297 0 0 0 0 0 0 -9.61206 
2706 9 -0.584889 0.917357 21.6669 29.8939 0 0 0 0 0 0 -7.17806 
2799 10 0.961208 3.3155 20.049 26.1486 0 0 0 0.30541 0.112734 -0.291363 -9.4357 
3027 9 -0.622447 1.16239 20.4292 26.3601 0 0 0 -7.69762 3.0066 0.322199 -7.10866 
3183 9 -0.608334 2.292 19.4624 28.3666 0 0 0 0.30882 -5.2711 -1.57706 -7.50924 
2754 9 -0.489526 3.14997 21.9907 25.3703 0 0 0 -3.99379 -0.919806 0.0357307 -7.24928 
3316 10 0.987691 0.75836 21.9021 27.7745 0 0 0 0.897459 -0.573576 0.742108 -9.51411 
3188 10 0.97012 0.604668 18.7217 27.0524 0 0 0 -1.55638 -0.455218 -1.47319 -9.57478 
3195 9 -0.616341 0.054805 18.5516 30.2141 0 0 0 0 0 0 -7.4463 
2341 8 1.0477 -0.00161336 21.0812 24.7007 1 0 0 -0.702875 0.586807 1.16942 -9.59321 
2835 9 -0.673909 1.94585 19.1333 32.1451 0 0 0 0 0 0 -7.20829 
3134 10 0.928392 2.38472 21.2559 32.5699 0 0 0 0 0 0 -8.9578 
2651 9 -0.591581 0.50097 21.4566 32.7366 0 0 0 0 0 0 -6.81753 
1948 5 -0.591421 1.19836 24.6668 -5.78399 0 0 0 0 0 0 -5.56112 
2100 6 1.0031 0.556875 22.7775 -6.47164 0 0 0 0 0 0 -12.0407 
1538 5 -0.45659 2.10132 23.0042 -7.73334 0 0 0 0 0 0 -4.66651 
1646 5 -0.52095 2.99003 25.5282 -7.62704 0 0 0 0 0 0 -4.82159 
1616 5 -0.602808 3.58121 23.3629 -5.14788 0 0 0 0 0 0 -5.41449 
1490 5 -0.55822 1.13586 22.4482 -4.34833 0 0 0 0 0 0 -5.74327 
1849 6 1.06065 2.26494 24.1127 -3.93767 0 0 0 0 0 0 -12.628 
2102 5 -0.607052 1.02891 25.497 -3.3119 0 0 0 0 0 0 -5.48247 
2006 5 -0.62745 0.871031 25.1417 -0.832466 0 0 0 0 0 0 -4.92259 
251 2 0.728084 2.58259 23.3146 2.03451 0 0 0 -0.196571 -0.385786 1.0659 -10.9925 
1987 6 0.999372 2.91558 25.0111 -1.21695 0 0 0 0 0 0 -12.3699 
1959 5 -0.586115 2.28949 23.2648 -2.00933 0 0 0 0 0 0 -5.19967 
167 1 -0.670433 2.5408 24.9769 1.224 0 0 0 -1.91864 -2.45021 5.33304 -5.58461 
363 1 -0.604848 1.64369 22.9099 3.78253 0 0 0 3.97992 -3.79381 -0.431088 -5.99553 
478 2 0.694187 2.70688 25.7963 4.06835 0 0 0 0.506628 0.957973 2.17259 -11.0897 
126 2 0.737196 0.6009 25.6785 0.986298 0 0 0 -0.144299 0.147601 1.30709 -11.7859 
432 1 -0.663515 3.26665 24.3394 5.43439 0 0 0 -3.46942 -2.90212 -1.72946 -6.15493 
942 3 -0.639771 1.7141 22.7763 10.3332 0 0 0 1.56596 -6.98507 0.801383 -6.81223 
1376 3 -0.514862 1.85253 25.553 10.4886 0 0 0 -7.9712 -1.89661 1.49102 -6.90876 
944 4 0.945941 2.72978 24.0555 8.92232 0 0 0 1.62285 0.843576 1.53109 -10.9877 
439 1 -0.630417 2.80167 25.715 7.90075 0 0 0 2.398 1.75426 0.970753 -6.35423 
1018 4 0.826301 1.03992 25.2281 6.76627 0 0 0 -0.322843 1.27773 0.247453 -10.6623 
17 1 -0.590891 1.77357 22.9055 7.69008 0 0 0 0.260406 2.76331 0.395469 -6.34053 
603 2 0.741038 2.3589 22.5332 5.77105 0 0 0 0.493098 -0.383304 -0.00621064 -11.1105 
1320 3 -0.694962 1.89828 25.354 15.5281 0 0 0 -3.08696 1.80265 -0.251921 -7.56286 
1244 3 -0.625964 1.80956 24.1908 12.9395 0 0 0 -5.81741 4.37319 4.79062 -7.03513 
1145 4 0.952945 2.83641 23.0729 11.8581 0 0 0 0.261995 0.560723 -1.03128 -10.0462 
973 4 0.9823 0.754801 25.5679 13.7642 0 0 0 1.05033 -0.309942 -0.281091 -9.67301 
1398 3 -0.59047 1.6933 22.6436 15.042 0 0 0 -1.20044 -1.06973 0.568279 -7.1934 
2422 8 1.02424 1.56565 23.8726 16.7266 0 0 0 1.41512 -2.40426 -0.29293 -9.41038 
1337 4 0.973614 0.224435 22.6098 13.7292 1 0 0 0.111999 0.120189 -2.16734 -9.6082 
843 4 0.922647 3.58648 25.1383 14.517 0 0 0 -1.92715 -0.160143 0.82684 -9.9045 
2862 9 -0.542476 1.24912 25.2215 24.0544 0 0 0 -0.481914 1.37792 0.876231 -7.04856 
1324 3 -0.546965 2.53018 24.9531 18.2988 0 0 0 0.139929 -1.97304 0.0121186 -7.42187 
2512 8 0.998535 2.47104 23.7151 19.9834 0 0 0 -0.571193 0.804821 0.724976 -9.62102 
2586 8 1.01733 2.74542 24.6812 23.006 0 0 0 -0.585814 -3.24437 -0.320488 -9.3213 
2144 7 -0.587248 3.25812 22.9138 21.8342 0 0 0 -2.93802 1.95103 -0.163819 -7.73254 
2427 7 -0.515798 1.07602 22.4903 23.5458 0 0 0 -0.122492 4.73646 2.74449 -7.26783 
2258 7 -0.594874 1.1611 24.5083 21.5529 0 0 0 -1.64473 0.120811 -0.00524587 -7.23057 
2199 7 -0.570333 3.36351 25.5599 20.8343 0 0 0 4.10616 0.800922 1.56108 -7.15667 
2605 7 -0.56106 0.20173 23.5585 19.4553 0 0 0 4.55652 -3.0454 5.12895 -7.1857 
1255 3 -0.619415 2.56508 22.1267 18.8544 0 0 0 8.68491 -7.97311 -2.38585 -7.31373 
2739 9 -0.60789 0.198337 22.8099 26.0016 1 0 0 -8.37947 -7.79223 -0.739817 -7.41804 
3065 10 0.952772 2.23462 23.1902 30.1036 0 0 0 0 0 0 -9.65731 
3294 9 -0.550438 2.39995 24.6258 27.7811 0 0 0 0 0 0 -7.45145 
2938 10 0.96245 0.972178 24.6598 26.009 0 0 0 0.812429 1.01513 -0.290811 -9.24553 
3318 9 -0.636855 0.917409 24.5418 30.415 0 0 0 0 0 0 -7.50309 
3279 9 -0.600542 3.59499 24.5154 25.2911 0 0 0 -1.96388 3.57436 -0.952386 -7.41889 
3164 9 -0.578035 2.71628 22.0726 28.1274 0 0 0 1.70395 -3.91043 -2.54438 -7.23811 
3222 9 -0.594846 2.39258 23.3766 32.4246 0 0 0 0 0 0 -7.02519 
3257 10 0.903926 0.341218 23.8971 32.3636 1 0 0 0 0 0 -9.29986 
1464 6 0.985815 1.82074 28.7725 -5.30082 0 0 0 0 0 0 -12.3306 
2080 5 -0.517531 2.03568 27.8527 -6.97495 0 0 0 0 0 0 -5.23663 
1474 5 -0.553265 0.256144 27.2077 -5.26244 0 0 0 0 0 0 -5.65661 
1722 6 0.948688 1.08223 26.0662 -7.20737 0 0 0 0 0 0 -11.066 
2078 5 -0.521801 3.53699 26.425 -5.07638 0 0 0 0 0 0 -5.65751 
2024 5 -0.608117 2.03518 28.144 -3.27404 0 0 0 0 0 0 -5.85577 
1434 5 -0.614348 0.527252 27.6973 -0.180191 0 0 0 0 0 0 -5.75754 
531 2 0.644684 1.61282 28.6435 2.92713 0 -1 0 -1.19901 -1.83222 -1.02326 -10.7828 
2028 5 -0.642672 2.98689 26.9039 -0.88299 0 0 0 0 0 0 -5.32779 
1677 6 1.02186 0.65415 27.1099 -2.18933 0 0 0 0 0 0 -12.82 
1518 6 0.950982 2.43164 28.7777 -0.143219 0 0 0 0 0 0 -12.2252 
656 1 -0.745083 3.06935 28.3638 1.68764 0 -1 0 -3.32969 -0.0152876 -1.83765 -5.76791 
5 1 -0.631156 0.930933 26.0975 3.11178 0 0 0 2.09625 -2.73234 -3.06721 -6.23101 
497 2 0.744787 3.02084 27.6782 8.08421 0 0 0 -0.150739 -0.233692 0.402394 -11.0484 
509 2 0.670347 0.666987 27.985 5.83206 0 0 0 -0.625919 0.458701 1.8329 -10.6455 