ITEM: TIMESTEP
1200000
ITEM: NUMBER OF ATOMS
3344
ITEM: BOX BOUNDS pp pp ff
0.0000000000000000e+00 2.9565597895300574e+01
0.0000000000000000e+00 2.9545719921235040e+01
-8.8921683279491504e+00 4.4289169250706017e+01
ITEM: ATOMS id type q x y z ix iy iz vx vy vz c_eng 
1802 6 0.970202 1.72361 2.50001 -5.82381 0 0 0 0 0 0 -11.9992 
1748 5 -0.553093 2.14193 1.01968 -7.10683 0 0 0 0 0 0 -5.44893 
2036 6 0.848146 0.0809366 0.962476 -7.73073 0 0 0 0 0 0 -10.1029 
1735 5 -0.638511 0.00588098 2.78976 -7.00765 0 0 0 0 0 0 -5.71873 
1835 5 -0.5891 1.86135 1.03881 -4.37975 0 0 0 0 0 0 -5.20904 
1553 6 1.0469 0.842892 0.86892 -2.65107 0 0 0 0 0 0 -12.51 
1851 5 -0.551087 2.86911 2.14945 -2.36357 0 0 0 0 0 0 -5.00023 
1662 5 -0.690248 1.36444 0.726991 -0.805768 0 0 0 0 0 0 -5.24326 
1877 5 -0.508613 1.02702 3.48064 -1.02956 0 0 0 0 0 0 -5.69967 
1879 6 0.96094 2.73425 2.50379 -0.383048 0 0 0 0 0 0 -12.2495 
111 1 -0.691767 0.52996 2.41477 2.33927 1 0 0 -7.4857 5.48799 -3.67467 -6.19182 
565 2 0.622614 0.241938 1.1888 0.740985 1 0 0 -0.0250786 -1.12388 1.25641 -10.5134 
507 2 0.679767 2.35443 2.36083 2.91038 0 0 0 -0.236725 0.748077 -2.1212 -10.8485 
248 1 -0.612099 3.20825 0.696366 4.03041 0 0 0 -2.68891 -2.39035 -1.03407 -6.28191 
122 1 -0.617145 1.64584 3.15098 5.26583 0 0 0 2.83197 2.77677 -1.60568 -6.18098 
430 1 -0.572886 1.48622 1.39612 9.96173 0 0 0 0.878693 2.93515 0.455391 -6.80217 
367 2 0.70859 1.55126 3.32308 7.41083 0 0 0 1.42892 -1.30402 1.14433 -10.5815 
484 1 -0.626971 0.731287 1.27051 7.2827 1 0 0 1.80791 -2.56646 -0.274718 -6.13754 
567 2 0.708103 1.85869 1.10448 5.60119 0 0 0 3.21459 -0.263658 -1.91017 -10.937 
1422 4 0.960655 3.15219 3.03248 10.6035 0 0 0 -0.583031 -2.22063 -1.98541 -10.4807 
928 4 0.938683 3.51337 0.190161 10.4481 0 0 0 -2.8435 -0.213418 -0.681711 -10.5932 
1098 4 0.924053 1.25702 1.25171 12.704 0 0 0 -1.95684 -0.0742514 -1.58939 -9.81288 
1143 3 -0.619148 2.49409 3.36223 15.5815 0 0 0 -3.93655 -3.27126 -5.47307 -7.80485 
1117 4 0.929892 3.56702 3.54103 13.7267 0 0 0 2.02239 0.2494 -1.26237 -9.89932 
1121 3 -0.538976 1.2115 0.880287 14.8562 0 0 0 -1.66488 -1.7758 3.89277 -7.33912 
1271 3 -0.641051 2.08794 3.17135 12.2783 0 0 0 -2.47715 -1.37224 3.42332 -7.45203 
1175 4 0.981596 2.83296 1.11201 15.7655 0 0 0 -0.729775 -1.28976 2.44417 -9.4825 
1339 3 -0.607044 2.86223 0.389059 12.2475 0 0 0 -0.884001 -3.72292 -5.0008 -6.81523 
1173 3 -0.529724 1.17676 3.15087 20.3848 0 0 0 0.506364 -1.8796 -3.92107 -7.35258 
2397 7 -0.595617 0.301945 0.507595 20.9696 1 0 0 4.4099 3.53441 -1.31951 -6.82695 
2296 7 -0.560364 1.11386 2.21816 22.9697 0 0 0 -2.80427 2.22735 -2.24104 -6.91334 
2507 7 -0.615264 3.29749 0.926593 22.7294 0 0 0 2.67334 -0.0596023 2.2527 -7.17372 
2398 8 1.04333 2.08262 1.22261 21.2853 0 1 0 -0.789273 1.26592 1.55947 -9.52261 
2500 8 1.02824 0.805788 2.61463 18.5118 1 0 0 -0.374859 -0.240744 1.22051 -9.54154 
2147 7 -0.661337 3.69212 2.21904 20.6257 0 0 0 0.700892 -1.15513 2.91837 -7.42994 
1147 3 -0.558142 2.44647 1.67627 17.8251 0 0 0 0.638511 0.860562 8.68151 -7.27849 
3018 10 1.05583 1.17077 1.62712 27.6357 0 0 0 0.442265 -0.511959 0.598207 -9.67821 
3067 9 -0.67796 3.00709 1.46139 30.3488 0 0 0 0 0 0 -7.00128 
3041 9 -0.51497 1.48349 3.2239 28.6783 0 0 0 0 0 0 -6.70855 
3191 9 -0.598121 1.9531 3.15374 25.6846 0 0 0 7.10917 0.923029 2.72557 -7.75395 
2951 9 -0.626345 0.485074 0.953894 26.0141 0 0 0 -2.58062 0.317633 1.63442 -7.30527 
3143 9 -0.493291 0.431275 0.95878 29.5551 1 0 0 0 0 0 -6.60223 
3095 10 0.983817 1.62695 2.89863 30.8277 0 0 0 0 0 0 -9.8613 
2309 8 1.02165 1.7763 1.26518 24.5249 0 0 0 -0.383904 -0.569165 -0.551048 -9.40178 
2814 9 -0.618559 3.57769 2.13294 27.5838 0 0 0 1.50237 4.63101 0.48556 -7.41491 
3190 9 -0.491385 0.786359 1.77284 32.0981 1 0 0 0 0 0 -6.096 
1684 6 0.747652 0.44505 4.47802 -7.87932 0 0 0 0 0 0 -9.58231 
1477 6 0.980432 3.45877 7.11732 -5.47067 0 0 0 0 0 0 -12.2257 
1857 5 -0.515964 2.03088 5.78519 -5.97954 0 0 0 0 0 0 -5.33775 
1590 6 1.07116 0.508353 5.42395 -4.74455 0 0 0 0 0 0 -12.1285 
1975 5 -0.439438 2.43497 3.78704 -7.65315 0 0 0 0 0 0 -5.00981 
1821 6 0.993853 3.36771 4.02785 -3.5146 0 0 0 0 0 0 -12.2952 
1825 5 -0.555762 1.50786 3.72072 -4.38085 0 0 0 0 0 0 -5.77011 
1909 5 -0.637029 0.062079 7.24188 -4.24721 0 0 0 0 0 0 -5.45794 
1818 5 -0.472012 2.15323 5.84092 -2.82165 0 0 0 0 0 0 -5.65592 
339 1 -0.633427 2.59945 3.97483 1.23054 0 0 0 -2.56054 -2.69351 -7.38128 -5.74 
1896 6 0.947567 3.05548 5.78708 -0.958883 0 0 0 0 0 0 -11.754 
1641 5 -0.650132 1.11582 5.995 -0.226154 0 0 0 0 0 0 -5.64894 
1664 6 0.992544 0.000928869 6.49413 -1.72773 0 0 0 0 0 0 -12.4186 
400 2 0.657599 3.04738 5.86635 2.23617 0 0 0 1.01103 -1.01741 0.277064 -10.5563 
428 2 0.696212 0.507692 4.36197 0.762841 0 0 0 0.87307 -0.597184 1.11946 -11.3986 
579 1 -0.612316 1.36454 5.64375 3.54324 0 0 0 3.04682 -5.50604 -1.11374 -6.27378 
114 2 0.707451 0.147219 3.81192 3.97538 0 0 0 -1.00628 -0.675101 -0.342039 -10.9385 
202 2 0.690487 0.327044 5.89797 6.57875 1 0 0 -1.57396 -1.48469 -1.90395 -10.651 
142 1 -0.686684 2.45569 5.39985 6.74128 0 0 0 -0.248197 -6.47869 3.90014 -6.57784 
980 4 0.914388 1.53614 5.56094 9.60022 0 0 0 -0.0147788 -1.17547 -0.177129 -10.6603 
55 1 -0.690747 2.53437 3.95236 8.97428 0 0 0 -2.8995 0.140445 -0.613368 -6.81601 
310 2 0.729893 3.19345 4.71586 4.98846 0 0 0 0.390371 -2.35335 0.273411 -11.1045 
2393 8 0.982744 0.564496 4.17799 15.6605 0 0 0 0.103331 0.608365 -0.529226 -9.73136 
891 3 -0.515962 0.704324 6.28081 16.4003 0 0 0 -3.23233 6.13037 8.06974 -6.73666 
37 1 -0.606687 1.63683 6.10173 11.3864 0 0 0 4.10658 -6.53567 1.42233 -6.63762 
1114 3 -0.591372 1.4947 5.552 14.0506 0 0 0 -0.371789 1.80597 1.68762 -7.12054 
1192 4 1.03003 2.88453 6.72307 14.8699 0 0 0 -0.845911 -0.181391 -0.655534 -9.88547 
762 3 -0.627037 3.30765 5.91241 16.6298 0 0 0 -3.68139 3.67741 -0.872741 -7.28364 
886 4 1.04682 0.476896 4.5915 12.4704 0 0 0 0.229508 0.366951 0.0145663 -10.1937 
2304 8 1.06065 0.524675 4.97715 21.6719 1 0 0 1.88436 0.597773 0.251995 -9.26844 
2521 7 -0.525959 2.30741 5.792 20.552 0 0 0 -0.500034 1.83899 -3.62154 -7.12303 
2202 7 -0.511778 1.88325 4.67663 22.9156 0 0 0 -3.18902 0.879104 2.17034 -7.25255 
937 3 -0.641484 2.60492 4.15993 18.4196 0 0 0 -2.09781 -4.4617 -0.0779804 -6.99887 
2551 8 1.0076 1.73751 5.97827 18.2807 0 0 0 -0.128639 0.355035 2.06852 -9.89792 
2618 8 1.01345 3.434 4.09662 20.221 0 0 0 -0.0458152 -0.045865 0.0880369 -9.66193 
2151 7 -0.589857 0.0964169 4.45365 18.1071 1 0 0 0.585567 -0.82462 0.162887 -7.21494 
2900 10 0.979625 0.855313 4.57157 24.9567 0 0 0 2.04044 -0.973531 -1.35124 -9.32197 
3034 9 -0.623748 2.77115 4.61416 30.302 0 0 0 0 0 0 -7.05052 
3146 10 0.952912 0.605148 7.17845 26.7536 0 0 0 0.94582 -0.335845 0.0511244 -9.48978 
3073 9 -0.515447 1.67863 5.48394 27.4387 0 0 0 -8.83189 0.448868 -3.87777 -7.00246 
2693 10 0.991794 3.13442 6.33353 28.7362 0 0 0 -1.32825 0.455195 -0.391138 -9.84682 
3125 9 -0.60076 0.142141 6.06229 29.6391 0 0 0 0 0 0 -7.54645 
3184 9 -0.484647 1.20333 6.60554 24.8084 1 0 0 1.27943 4.6742 -3.52023 -7.18713 
3344 9 -0.523383 3.61092 5.43516 25.3458 0 0 0 0.943798 -2.58639 0.756921 -7.09153 
3093 9 -0.582797 0.670492 4.44219 31.9083 0 0 0 0 0 0 -6.6278 
3136 9 -0.596953 0.779717 7.25829 32.4875 0 0 0 0 0 0 -6.49211 
2857 9 -0.540346 3.60835 6.05964 32.4556 0 0 0 0 0 0 -6.36468 
2880 10 0.943048 1.54431 6.02667 31.2853 0 0 0 0 0 0 -9.77141 
1668 5 -0.477164 1.63982 10.6717 -7.73594 0 0 0 0 0 0 -4.6729 
1710 6 0.979743 3.38017 9.88872 -7.55904 0 0 0 0 0 0 -11.2932 
1995 5 -0.560807 1.79075 8.27419 -5.98123 0 0 0 0 0 0 -5.38742 
1930 6 0.872201 0.671533 7.7432 -7.51036 0 0 0 0 0 0 -10.9564 
1697 5 -0.558008 3.30855 10.393 -5.66731 0 0 0 0 0 0 -5.19031 
1842 5 -0.401065 2.53377 8.15612 -8.52032 0 0 0 0 0 0 -4.39027 
2066 6 1.02609 1.28859 8.78907 -4.10193 0 0 0 0 0 0 -12.282 
1595 5 -0.544845 3.06388 8.26534 -3.57222 0 0 0 0 0 0 -5.39407 
2025 5 -0.587441 1.63238 10.6237 -3.32851 0 0 0 0 0 0 -5.51408 
1628 5 -0.663973 3.0354 10.4046 -0.960219 0 0 0 0 0 0 -5.65471 
1920 5 -0.581206 0.902538 8.32403 -2.0179 0 0 0 0 0 0 -5.85229 
1504 6 0.93572 1.04997 10.0798 -1.02812 0 0 0 0 0 0 -11.8112 
380 2 0.66661 0.590985 7.87933 0.904735 0 0 0 -1.17719 -0.780036 -0.0428401 -10.917 
423 1 -0.659495 0.739704 10.0171 0.942796 0 0 0 -1.55409 2.7847 -1.59546 -6.02 
137 2 0.680697 1.37851 7.50908 4.01782 0 0 0 -0.748288 -0.509843 2.66768 -10.566 
663 1 -0.580207 2.50021 7.78077 1.38222 0 0 0 6.08128 -1.43507 -5.41653 -6.20269 
530 2 0.673269 3.42716 9.73693 0.922142 0 0 0 0.608195 1.66211 -0.494516 -11.2592 
345 1 -0.621897 1.92207 9.52219 3.77172 0 0 0 -5.49413 0.239218 2.21133 -6.40142 
213 2 0.655551 0.0679079 10.0708 2.88438 0 0 0 2.204 0.666405 -0.348367 -10.575 
577 1 -0.640132 3.61982 9.16122 6.15237 0 0 0 3.26547 7.14383 6.02906 -6.54448 
1085 3 -0.642028 0.738704 9.76495 7.99818 0 0 0 -6.74978 -2.52994 -4.28707 -6.75399 
100 1 -0.662838 0.830245 7.8979 5.90877 0 0 0 -1.72254 -3.57984 -0.320547 -6.73543 
614 2 0.71646 1.35324 10.0357 5.95987 0 0 0 -0.0440583 1.95728 0.568055 -10.896 
1006 4 0.886512 2.53216 9.71833 9.02121 0 0 0 0.656097 -2.25152 1.46103 -10.8156 
581 2 0.659395 2.95203 7.40726 6.75309 0 0 0 -0.947578 -1.78613 -1.01347 -10.5585 
1138 3 -0.651912 2.20668 9.63302 10.9194 0 0 0 -2.99004 9.03722 -2.14865 -6.91795 
480 1 -0.653947 2.48329 7.45029 8.90871 0 0 0 -4.49711 2.5795 -0.146114 -6.9271 
474 1 -0.570451 3.06544 7.89256 13.1834 0 0 0 7.7517 -3.49443 4.06452 -6.86108 
993 3 -0.585526 2.1315 8.34479 15.8011 0 0 0 -1.50902 -0.707786 1.84406 -7.22302 
1115 3 -0.602177 0.640147 10.1613 16.9536 1 0 0 0.412964 -0.956322 -3.96332 -7.2771 
800 4 1.01368 0.915383 9.77165 14.9368 0 0 0 -0.032626 0.726946 1.10961 -9.92083 
1334 3 -0.600048 1.41235 10.7179 13.0768 1 0 0 2.93166 2.65863 0.759599 -6.7849 
922 4 0.986146 1.70671 7.94383 11.7829 0 0 0 1.21919 -0.353184 0.465657 -10.2525 
1321 3 -0.406349 2.89159 10.8089 15.519 0 0 0 0.414403 1.27429 0.612489 -6.67758 
1291 3 -0.585699 0.332757 8.41219 13.4397 0 0 0 -2.81146 -13.675 3.64493 -7.1681 
780 4 1.06754 3.17749 10.913 12.3551 0 0 0 1.50664 0.245986 1.42932 -10.4397 
1024 4 0.946431 -0.000222057 10.3676 11.5102 1 0 0 -1.798 -1.64611 0.0916579 -10.3631 
2549 8 1.03831 2.56815 8.36438 22.8279 0 0 0 -0.119569 0.429094 0.0938214 -9.08609 
1216 3 -0.641564 0.72825 7.79336 18.4065 0 0 0 -0.117696 -3.65518 2.47427 -7.4452 
2205 7 -0.594665 2.67193 8.8333 20.9023 0 0 0 4.14975 -3.07675 1.00346 -7.0747 
2306 7 -0.566175 3.29062 10.8587 22.27 0 0 0 8.75848 -1.99891 2.05539 -7.22477 
2443 7 -0.445034 1.33411 9.7067 23.2136 1 0 0 3.7135 5.7505 2.71965 -6.32842 
2270 7 -0.593432 0.462989 9.92466 19.7983 1 0 0 1.33366 2.47198 0.201668 -7.29157 
2417 8 1.01369 0.203089 8.04444 20.357 0 0 0 -2.59646 1.6113 0.804792 -9.55396 
2256 8 0.994164 2.10494 10.7354 20.5836 0 0 0 -1.08507 -0.54495 1.96394 -9.44218 
924 3 -0.64527 2.63533 10.8556 18.6429 0 0 0 4.29666 -3.25537 2.67131 -7.64228 
2177 7 -0.563779 0.843102 7.39157 22.1971 1 0 0 3.76145 1.45123 -4.31658 -7.00875 
2178 8 0.997047 2.25373 9.0202 17.7205 0 0 0 -2.34775 1.41147 0.354076 -9.87661 
1210 3 -0.583302 3.274 7.46514 18.6499 0 0 0 2.54164 0.292343 3.64733 -7.10754 
3121 9 -0.632865 0.152518 8.9292 30.2329 1 0 0 0 0 0 -7.40641 
3058 9 -0.467487 3.35394 8.15207 24.6723 0 0 0 -0.375485 -0.604032 3.97681 -7.11668 
2913 9 -0.584328 3.05627 10.6074 28.2607 0 0 0 -3.78896 -0.655289 2.3736 -7.55359 
3005 9 -0.561882 2.01849 10.1924 25.7825 0 0 0 -7.68919 -7.00466 -2.38084 -7.21031 
3211 9 -0.651183 2.06051 8.03886 27.7836 0 0 0 7.3565 0.308585 -0.918804 -7.34716 
2926 10 0.972913 3.3911 8.94722 26.4652 0 0 0 0.748343 -0.819206 -1.01368 -9.37427 
3282 10 1.02121 1.92518 9.26382 29.2311 0 0 0 0 0 0 -9.76193 
2811 9 -0.6729 2.54921 7.49731 30.2657 0 0 0 0 0 0 -7.3939 
3241 9 -0.583238 2.09806 10.6541 30.7246 0 0 0 0 0 0 -7.16251 
2884 9 -0.550359 0.043652 9.94274 27.8163 0 0 0 1.22892 -0.961838 2.40625 -7.08397 
2844 9 -0.515595 2.70583 9.05133 32.7021 0 0 0 0 0 0 -6.12106 
2720 10 0.960688 0.585998 9.22885 32.092 0 0 0 0 0 0 -9.87706 
2980 9 -0.557436 0.970481 10.904 33.3026 0 0 0 0 0 0 -6.31078 
1493 5 -0.590016 2.35197 13.0227 -5.98123 0 0 0 0 0 0 -5.5281 
1511 6 0.956797 1.09734 12.4725 -7.27982 0 0 0 0 0 0 -10.8305 
1536 6 1.01946 3.55767 14.5602 -5.53605 0 0 0 0 0 0 -12.4409 
1840 5 -0.658447 0.144915 14.3081 -7.28475 0 0 0 0 0 0 -5.35888 
1539 5 -0.586622 0.627084 13.0261 -4.04772 0 0 0 0 0 0 -5.45504 
1484 6 1.06947 2.91057 11.6929 -4.45009 0 0 0 0 0 0 -12.3605 
1939 5 -0.573809 2.99641 12.859 -2.9592 0 0 0 0 0 0 -5.08876 
1437 6 0.999124 0.700919 13.586 -2.07916 0 0 0 0 0 0 -12.4944 
2018 6 1.01742 3.42495 12.3248 -1.12582 0 0 0 0 0 0 -12.4967 
1764 5 -0.716757 1.58077 13.0068 -0.521059 0 0 0 0 0 0 -5.37474 
586 1 -0.629809 2.06788 13.45 3.32484 0 0 0 -1.93282 -8.56891 11.249 -6.10852 
146 2 0.659762 1.16493 12.1516 1.18419 1 0 0 0.345264 -0.699205 -1.73852 -10.7873 
398 2 0.70984 2.88662 11.574 3.65288 0 0 0 -0.520576 -0.919851 -1.54508 -10.8907 
697 1 -0.675941 3.11688 11.6584 1.54152 0 0 0 -0.594669 0.797379 -1.71421 -6.11284 
665 2 0.737881 0.284323 12.7515 4.24321 1 0 0 -1.4981 -0.594845 -1.2557 -11.0421 
807 4 0.944592 1.02056 12.4612 9.32343 0 0 0 0.41178 -1.88187 -1.9363 -10.7759 
218 1 -0.586011 0.301953 12.9137 7.64225 0 0 0 2.72854 0.241068 3.93204 -6.53802 
416 2 0.733622 2.17996 13.1524 6.65464 0 0 0 1.04988 -0.42496 0.856823 -11.0042 
572 1 -0.677998 1.7826 11.7996 5.35492 0 0 0 3.66604 -0.142233 -0.117972 -5.90377 
690 1 -0.654093 2.73139 11.7541 8.2829 0 0 0 -2.57588 0.198662 5.83987 -6.77195 
491 1 -0.647586 0.995146 14.6066 9.90943 0 0 0 8.13381 -1.35178 -7.03776 -7.04924 
39 1 -0.629608 3.22368 14.4503 8.07729 0 0 0 -3.01318 1.4286 4.52618 -6.8334 
956 3 -0.635367 2.31286 12.3939 10.8245 0 0 0 1.10896 -1.97588 -3.05525 -6.74273 
733 4 0.998785 0.956171 12.9043 13.8112 0 0 0 0.583844 0.0732249 -0.596024 -9.85213 
789 3 -0.584092 1.46375 13.1657 15.6954 0 0 0 -4.19341 2.11551 6.25754 -7.416 
2408 8 0.958219 1.05782 12.0967 17.3414 0 0 0 -2.05367 0.394078 -0.113077 -9.55888 
905 3 -0.552158 3.05024 12.6444 13.4081 0 0 0 -3.46059 1.51652 6.52889 -6.87269 
832 4 0.920153 2.52311 14.3183 11.4084 0 0 0 -2.55683 1.14097 -0.0749146 -10.4494 
1136 3 -0.597139 1.01767 14.6225 12.9772 0 0 0 -7.91797 0.848475 -1.47612 -6.94502 
1235 3 -0.620994 3.02233 13.408 17.8333 0 0 0 -3.91665 -3.91348 1.35795 -7.27137 
1060 3 -0.528007 2.51832 12.8771 20.669 0 0 0 4.20543 1.31359 -0.0937066 -7.12743 
2260 8 0.974198 2.50229 14.4535 19.4368 0 0 0 1.87701 1.04857 -0.202587 -9.48619 
2506 8 0.902814 1.05296 13.3544 22.1044 1 0 0 0.130699 0.373003 2.47802 -9.16506 
2242 7 -0.627417 2.50159 13.2687 23.6074 0 0 0 -0.77263 -4.13949 4.02024 -7.62364 
1274 3 -0.597924 0.410917 13.0319 19.0811 0 0 0 0.224913 2.50195 -5.31108 -7.50742 
2570 8 1.03232 2.42781 11.2928 24.0728 0 0 0 1.5329 -0.409643 -0.282229 -9.48798 
2197 7 -0.45856 0.154985 11.752 21.607 1 0 0 1.37504 0.288707 1.53312 -7.06057 
2709 9 -0.622709 0.900447 12.3142 28.8086 0 0 0 -1.98935 1.30792 2.91548 -7.61788 
2876 9 -0.585918 2.38327 12.9427 26.3853 0 0 0 2.8991 -8.72703 4.05175 -7.44416 
2757 10 1.00444 1.267 14.3124 24.9368 0 0 0 -0.397752 -0.722672 0.896689 -9.19818 
2727 10 0.99882 0.938395 11.5163 26.9117 0 0 0 -0.360855 -1.05675 -0.231015 -9.5239 
2700 10 0.996466 2.69058 12.3732 29.6868 0 0 0 0 0 0 -9.73441 
3056 9 -0.541245 0.48684 14.5486 27.0029 0 0 0 4.84619 -2.1697 5.79873 -7.25113 
3062 9 -0.624475 2.1945 14.4768 29.8338 0 0 0 0 0 0 -7.70454 
2453 7 -0.561244 0.462144 11.9363 24.4741 0 0 0 -3.21439 -0.657158 0.653286 -7.3294 
2979 9 -0.588738 3.20804 12.9286 33.1985 0 0 0 0 0 0 -6.38659 
2755 9 -0.602623 0.961245 12.9718 31.4267 0 0 0 0 0 0 -6.93813 
3083 10 0.921421 2.04086 14.2864 32.4858 0 0 0 0 0 0 -9.15896 
3194 9 -0.515101 0.330714 14.1588 33.6452 0 0 0 0 0 0 -5.96691 
3234 10 0.985236 2.81013 11.0841 32.5951 0 0 0 0 0 0 -9.44676 
1794 5 -0.498476 0.0641606 16.4886 -5.53735 0 0 0 0 0 0 -5.97428 
1660 5 -0.568169 2.53186 15.5489 -7.05451 0 0 0 0 0 0 -5.30221 
1494 5 -0.515895 1.24763 17.7215 -8.24278 0 0 0 0 0 0 -4.64436 
1541 6 0.890973 0.928328 15.8931 -8.1644 0 0 0 0 0 0 -10.4106 
1868 6 0.96805 3.57701 17.2803 -7.26231 0 0 0 0 0 0 -11.9599 
1429 5 -0.609051 2.46695 18.2146 -5.89243 0 0 0 0 0 0 -5.46371 
1846 5 -0.560232 2.20567 15.3138 -4.18135 0 0 0 0 0 0 -5.91647 
2035 6 0.959467 1.45115 17.2948 -4.38656 0 0 0 0 0 0 -12.3417 
1513 5 -0.684814 3.2171 17.5668 -3.29097 0 0 0 0 0 0 -5.39347 
1867 6 0.98248 3.4585 15.6092 -2.53379 0 0 0 0 0 0 -12.3223 
1890 5 -0.675843 0.509203 17.8549 -2.34134 0 0 0 0 0 0 -5.4201 
1813 5 -0.638034 3.2179 16.8636 -0.757449 0 0 0 0 0 0 -5.52166 
1978 5 -0.595547 0.981624 15.4447 -1.62043 0 0 0 0 0 0 -5.47424 
311 2 0.588313 2.23854 15.1017 -0.0654075 0 0 0 1.85812 -0.0927906 1.44777 -10.5189 
77 1 -0.664659 1.64596 17.4085 2.14995 0 0 0 3.73205 9.45638 -1.7358 -5.95983 
2050 6 0.921977 2.30947 18.3135 -1.79829 0 0 0 0 0 0 -11.818 
147 2 0.698009 1.92978 18.2364 3.97901 0 0 0 -0.85066 0.383854 -0.52102 -10.872 
360 2 0.621839 1.70608 15.4927 2.82059 0 0 0 0.0369389 -1.07211 1.80132 -10.2368 
466 2 0.678995 3.55606 17.6583 1.31941 0 0 0 -1.50966 1.27758 0.917747 -11.0395 
256 1 -0.634784 3.3556 16.3494 4.00074 0 0 0 -1.6477 -1.6586 -1.44633 -6.14855 
609 1 -0.635731 1.68634 15.1461 5.94252 0 0 0 -10.2167 -1.96244 -2.31839 -6.42315 
243 2 0.669135 3.29105 16.5476 6.25191 0 0 0 -2.41203 -0.345379 0.36602 -10.6978 
637 1 -0.594009 0.362829 18.097 5.49318 0 0 0 3.0211 -2.66506 -7.2371 -6.84292 
837 4 0.84247 1.18223 15.5072 8.04352 0 0 0 -0.652416 -0.408274 0.128335 -10.6196 
790 3 -0.623364 2.78996 16.4984 10.7089 0 0 0 -1.57514 -4.85625 0.173688 -6.74507 
588 1 -0.625107 1.65949 17.4678 8.00476 1 0 0 5.62343 -4.48743 6.42566 -6.81578 
1268 4 0.903559 1.88062 18.0585 9.88405 0 0 0 0.746191 -0.849191 1.28182 -10.666 
499 2 0.671017 0.0558515 15.9335 5.21999 0 0 0 0.548689 -0.984472 -1.54487 -10.6057 
1346 4 0.971277 0.978473 16.5484 13.1424 0 0 0 0.615241 0.124116 0.02061 -9.95318 
725 3 -0.658312 0.597016 17.9637 11.6941 0 0 0 2.57903 -7.07502 2.49746 -7.30242 
1275 3 -0.615023 1.34521 16.7051 15.1877 0 0 0 1.1487 2.73933 -2.11697 -7.49951 
906 3 -0.577394 3.44642 15.3398 13.0187 0 0 0 -3.2211 4.3821 -9.78301 -6.6557 
1034 3 -0.612118 2.8475 18.0032 13.0993 0 0 0 3.18914 -3.35714 5.79103 -7.37719 
2212 8 1.02648 3.06115 18.1574 15.052 0 0 0 1.73188 -1.28786 -1.58658 -9.33807 
2271 8 1.00278 1.70938 15.0193 16.1957 0 0 0 -0.667959 -0.920033 0.450483 -9.55447 
1142 3 -0.562962 3.57197 15.3188 15.5985 0 0 0 0.488732 8.73463 0.0712245 -7.14006 
2614 7 -0.592793 3.02786 17.5796 22.9287 0 0 0 4.97419 -0.263309 1.404 -7.50578 
2509 8 1.03657 1.75684 17.4928 18.8082 0 0 0 1.36356 -0.260921 -0.0774398 -9.21884 
2529 7 -0.576064 1.41408 15.6237 23.3791 0 0 0 -2.3046 -3.77928 -1.44507 -7.46086 
2201 8 0.991622 3.21582 15.7278 22.2696 0 0 0 -0.383377 1.9099 -0.113589 -9.5189 
1109 3 -0.631491 2.18394 15.8084 18.0923 0 0 0 -2.15832 2.81735 4.13426 -7.33694 
2420 7 -0.50465 1.12588 17.8858 20.7667 0 0 0 -0.171107 -3.3998 2.42406 -7.16596 
1186 3 -0.604511 1.21287 15.2214 20.7014 0 0 0 -4.76313 1.83537 0.783437 -7.49369 
2566 8 1.04519 1.62532 17.964 24.3445 0 0 0 -0.180045 1.29176 0.0717386 -9.36061 
2440 7 -0.63127 0.076413 18.0118 23.0743 1 0 0 -4.77474 1.75789 3.13968 -7.34576 
3096 9 -0.496633 3.04101 15.4105 25.647 0 0 0 -0.115802 1.89903 2.21454 -7.34207 
2645 9 -0.602715 1.5996 16.9542 28.0193 0 0 0 -0.01913 0.588239 4.64131 -7.32109 
2710 9 -0.504153 0.401257 17.082 25.5932 0 0 0 -4.01277 -3.0326 -1.16408 -7.15819 
2729 9 -0.654285 2.71058 17.4656 30.2958 0 0 0 0 0 0 -6.92676 
2663 9 -0.590562 2.87552 18.1162 25.8101 0 0 0 4.35098 3.5345 -0.393091 -7.62227 
3251 10 0.997925 1.06651 16.6426 29.982 0 0 0 0 0 0 -9.84806 
2779 10 1.0141 3.51206 17.7769 28.3458 0 0 0 0 0 0 -9.82431 
2752 10 0.933284 2.39985 14.8306 27.6713 0 0 0 -1.26437 0.458568 0.31307 -9.55048 
3029 9 -0.515604 3.44836 15.6033 32.242 0 0 0 0 0 0 -6.52588 
3106 9 -0.62823 0.521332 16.2568 31.8065 0 0 0 0 0 0 -7.4291 
3158 10 0.817128 0.315769 18.1889 32.4367 1 0 0 0 0 0 -8.60989 
3266 10 0.892569 3.66166 18.3883 31.6653 0 0 0 0 0 0 -9.15815 
1972 6 1.03536 0.887802 19.1948 -7.0092 0 0 0 0 0 0 -12.0913 
1967 5 -0.588764 2.06968 20.8049 -6.40046 0 0 0 0 0 0 -5.57518 
1979 5 -0.552291 0.528805 19.2812 -4.62812 0 0 0 0 0 0 -5.72106 
1811 5 -0.278085 0.696566 20.3588 -8.59578 0 0 0 0 0 0 -3.70844 
1447 5 -0.444705 3.60021 18.928 -8.3861 0 0 0 0 0 0 -4.55282 
1658 6 0.983626 2.04385 20.72 -4.37171 0 0 0 0 0 0 -12.3002 
1619 5 -0.674687 1.99653 20.1165 -2.38092 0 0 0 0 0 0 -5.50556 
103 1 -0.549223 1.59656 20.1009 3.18534 0 0 0 -0.306483 4.28928 8.62778 -6.15062 
1918 6 1.04121 2.04657 21.6381 -1.14409 0 0 0 0 0 0 -12.5353 
1435 5 -0.633366 0.0227732 21.8174 -1.77234 0 0 0 0 0 0 -5.63837 
208 1 -0.616709 1.96072 21.6671 0.826648 0 0 0 -7.41009 -4.08522 -2.19868 -5.55668 
260 1 -0.590808 2.86729 19.3279 0.234903 0 0 0 -3.13408 -4.89803 -0.246436 -5.78408 
407 2 0.69148 3.38485 20.9593 3.81301 0 0 0 2.54686 -1.46028 0.144357 -10.7794 
280 2 0.720966 0.336918 21.3603 1.95722 0 0 0 -0.219824 -0.108369 0.367925 -11.3575 
653 2 0.630276 0.770182 18.5061 0.526109 0 0 0 -1.81887 0.447817 -0.792379 -10.7961 
263 2 0.699032 1.73089 19.5438 6.83498 1 0 0 1.17689 1.38609 1.51924 -10.6694 
1396 4 0.882024 0.417391 21.5257 9.21231 0 0 0 -1.52171 0.192921 -1.05389 -10.3247 
532 1 -0.596095 1.02742 21.1572 5.7271 0 0 0 -3.808 -3.2837 7.82574 -6.2759 
879 4 0.876883 3.34365 20.9093 9.76143 0 0 0 -1.22325 -0.0482528 -1.26402 -10.4993 
834 3 -0.613596 3.14049 20.6193 7.90817 0 0 0 -2.54999 -0.20693 3.727 -6.8052 
1263 3 -0.595248 1.24387 20.1298 10.4306 0 0 0 -4.14497 3.77822 -1.65762 -6.62396 
131 1 -0.663529 3.20569 18.6412 5.51031 0 0 0 -9.57154 0.650903 -3.50016 -6.495 
786 3 -0.559004 3.30981 21.0247 16.5651 0 0 0 -2.69346 2.23829 -1.30883 -7.12304 
1283 4 0.960221 3.24414 21.5916 14.7118 0 0 0 -2.07278 2.21273 1.1991 -9.73914 
912 3 -0.646721 2.81688 21.1348 12.5204 0 0 0 -7.37057 -4.23789 5.96215 -7.37146 
1328 3 -0.567844 1.62335 19.7844 14.6326 1 0 0 -3.34082 4.80855 -5.45999 -7.23152 
954 4 0.998287 1.60885 19.664 12.4444 0 0 0 -1.42097 1.51409 -2.5544 -10.1605 
1214 4 0.991006 1.26143 20.2302 16.7332 0 0 0 -0.179134 -0.284535 -1.52698 -9.51792 
2222 7 -0.519293 0.408906 22.0813 17.2336 1 0 0 1.63638 -6.82889 -3.50758 -6.93109 
759 3 -0.495195 2.40485 18.4837 16.895 0 0 0 1.90041 -0.353474 4.51423 -7.06782 
2494 7 -0.626599 0.930606 21.3911 20.9889 0 0 0 1.44259 4.7704 -0.217517 -7.43421 
2390 8 0.975555 2.84939 21.5184 23.2802 0 0 0 1.96794 -0.781758 -0.332289 -9.35137 
2474 7 -0.593219 2.98672 19.9907 21.7141 0 0 0 4.25003 -4.10548 4.37429 -7.53125 
2305 8 1.00741 0.486195 19.6729 21.7943 0 0 0 0.64635 -0.97103 -0.881681 -9.60163 
2182 8 1.00522 2.90039 20.3776 19.8236 0 0 0 1.86787 0.0557096 2.60909 -9.35235 
2208 7 -0.605456 1.66358 19.9707 23.9261 0 0 0 4.56712 1.68624 4.57418 -7.36027 
815 3 -0.573742 1.09466 19.893 18.8166 0 0 0 -0.873272 7.17672 0.650835 -7.3491 
2187 7 -0.447075 3.5022 18.5048 19.486 0 0 0 -4.17869 0.420632 0.754474 -7.06156 
2636 8 0.979954 0.0323495 21.7018 19.1707 1 0 0 0.291088 -0.0202216 -0.45499 -9.49777 
3175 9 -0.663394 3.29903 21.1574 30.7938 0 0 0 0 0 0 -7.77655 
2874 10 0.912867 1.44577 19.8732 30.1297 0 0 0 0 0 0 -9.64213 
2706 9 -0.554608 0.917216 21.6821 29.8939 0 0 0 0 0 0 -7.03319 
2799 10 1.00505 3.2875 20.2295 26.0263 0 0 0 0.237546 0.390251 -1.08481 -9.46375 
3027 9 -0.619153 1.19014 20.3987 26.3699 0 0 0 -2.92155 -0.606532 -1.51702 -6.88823 
3183 9 -0.609576 2.29552 19.4676 28.4447 0 0 0 -3.97414 -0.420017 3.5357 -7.35435 
2754 9 -0.506397 3.02551 22.0472 25.3887 0 0 0 -3.19528 0.850607 -2.70012 -7.08021 
3316 10 0.994788 0.655486 22.0009 27.6744 0 0 0 1.76439 2.33692 1.10521 -9.55147 
3188 10 0.97009 0.595094 18.7412 27.2741 0 0 0 0.312273 -0.143971 -1.74251 -9.64177 
3195 9 -0.619349 0.0547966 18.5646 30.2141 0 0 0 0 0 0 -7.44968 
2341 8 1.04687 0.0822518 21.2617 24.768 1 0 0 -0.949987 0.274936 2.41724 -9.55899 
3164 9 -0.563355 2.62947 22.0603 27.9996 0 0 0 -5.73505 1.757 -0.802741 -7.20639 
2835 9 -0.674162 1.94555 19.1467 32.1451 0 0 0 0 0 0 -7.20533 
3134 10 0.926652 2.38436 21.2708 32.5699 0 0 0 0 0 0 -8.97567 
2651 9 -0.591557 0.500893 21.4716 32.7366 0 0 0 0 0 0 -6.80086 
1948 5 -0.591111 1.19817 24.684 -5.78399 0 0 0 0 0 0 -5.56664 
2100 6 1.00294 0.556789 22.7935 -6.47164 0 0 0 0 0 0 -12.0318 
1538 5 -0.456733 2.10099 23.0203 -7.73334 0 0 0 0 0 0 -4.67005 
1646 5 -0.520884 2.98957 25.5461 -7.62704 0 0 0 0 0 0 -4.82548 
1616 5 -0.602756 3.58066 23.3793 -5.14788 0 0 0 0 0 0 -5.41958 
1490 5 -0.558295 1.13568 22.4639 -4.34833 0 0 0 0 0 0 -5.74884 
1849 6 1.05919 2.26459 24.1296 -3.93767 0 0 0 0 0 0 -12.613 
2102 5 -0.607772 1.02875 25.5149 -3.3119 0 0 0 0 0 0 -5.48919 
2006 5 -0.619665 0.870897 25.1593 -0.832466 0 0 0 0 0 0 -4.93262 
251 2 0.703435 2.64949 23.2193 1.90952 0 0 0 -0.885371 -0.56575 -0.319056 -10.992 
1987 6 1.01041 2.91513 25.0286 -1.21695 0 0 0 0 0 0 -12.4349 
1959 5 -0.58897 2.28914 23.2811 -2.00933 0 0 0 0 0 0 -5.23731 
167 1 -0.645069 2.59555 24.9205 1.08658 0 0 0 -2.22643 0.453214 1.25491 -5.74197 
363 1 -0.574362 1.82621 22.9171 3.75453 0 0 0 3.36231 -2.59545 0.963362 -6.1288 
478 2 0.67871 2.77441 25.6638 3.88316 0 0 0 1.64743 0.313391 0.988428 -10.9104 
126 2 0.74161 0.618505 25.8249 0.97828 0 0 0 -0.470027 -0.87773 1.29469 -11.8471 
432 1 -0.643841 3.29993 24.3649 5.37701 0 0 0 3.72078 1.83109 1.39822 -6.103 
942 3 -0.656079 1.95561 22.57 10.3157 0 0 0 -2.10882 -0.53051 -3.25166 -6.89241 
1376 3 -0.528764 1.81845 25.5148 10.6785 0 0 0 2.02235 -1.59222 1.58237 -7.03098 
944 4 0.872914 2.72329 23.9733 8.9934 0 0 0 1.44276 0.416691 0.266497 -10.7249 
439 1 -0.656019 2.77218 25.7606 7.75694 0 0 0 -0.362943 0.737974 -0.245803 -6.46223 
1018 4 0.878287 1.05672 25.2136 6.92675 0 0 0 -0.716918 -0.347967 -0.393805 -10.6789 
17 1 -0.6174 1.49202 22.9682 7.62534 0 0 0 6.37394 -1.96758 -0.974946 -6.46699 
603 2 0.724251 2.45064 22.6155 5.90929 0 0 0 0.274233 -2.36974 -0.775942 -10.9371 
1320 3 -0.686132 1.94737 25.5366 15.5688 0 0 0 -5.05113 -6.40696 -2.0872 -7.60595 
1244 3 -0.604257 1.743 24.2723 13.1299 0 0 0 0.720096 0.597531 -2.42299 -7.00871 
1145 4 0.955765 2.80767 23.073 11.9619 0 0 0 0.509915 1.13589 -0.632567 -10.0901 
973 4 1.03288 0.758265 25.7852 13.8064 0 0 0 -0.747942 -0.517456 -0.248369 -9.69931 
1398 3 -0.60998 1.64007 22.6019 15.1237 0 0 0 0.694628 -6.08512 -5.73147 -7.25539 
2422 8 1.03825 1.54385 23.9031 16.7203 0 0 0 0.44047 1.11086 -0.0357912 -9.51486 
1337 4 0.956175 0.276383 22.6419 13.7247 1 0 0 -2.76805 2.68578 -0.205521 -9.64713 
843 4 0.956009 3.58873 25.1802 14.5414 0 0 0 -0.941371 0.491357 -0.177113 -9.9597 
2862 9 -0.517683 1.35102 25.177 24.0934 0 0 0 3.06966 0.165034 1.6479 -6.9117 
1324 3 -0.551886 2.39909 24.8902 18.2544 0 0 0 -2.67415 -0.649759 3.03505 -7.30227 
2512 8 1.00702 2.45501 23.771 19.9652 0 0 0 1.04322 0.623854 -0.845751 -9.70372 
2586 8 1.04065 2.73196 24.9686 22.826 0 0 0 -0.130279 -1.9991 -0.0191117 -9.30636 
2144 7 -0.582426 3.23139 22.9156 21.7087 0 0 0 4.03589 9.42143 -0.0774076 -7.53478 
2427 7 -0.521067 1.03875 22.5307 23.447 0 0 0 -0.0138624 1.53079 3.77612 -7.33821 
2258 7 -0.614331 1.15981 24.5701 21.5399 0 0 0 -3.21775 1.16231 0.515237 -7.11385 
2605 7 -0.606178 0.0963829 23.575 19.5455 0 0 0 3.52149 -5.8543 5.18864 -7.35739 
2199 7 -0.614525 3.23508 25.6452 20.7737 0 0 0 3.45716 3.42541 0.395189 -7.12885 
1255 3 -0.629758 2.54232 22.2316 18.8155 0 0 0 -0.97721 2.83282 -1.36641 -7.33497 
3279 9 -0.552516 3.52347 24.555 25.3044 0 0 0 4.42575 -1.20163 5.81133 -7.16987 
3065 10 0.948134 2.23427 23.2065 30.1036 0 0 0 0 0 0 -9.65704 
3294 9 -0.532709 2.39958 24.6431 27.7811 0 0 0 0 0 0 -7.41628 
2938 10 0.976838 1.10194 24.6327 26.0657 0 0 0 0.590305 1.04796 -0.129223 -9.31601 
3318 9 -0.634629 0.917269 24.559 30.415 0 0 0 0 0 0 -7.4668 
2739 9 -0.647859 0.121713 22.803 25.9644 1 0 0 -2.06072 0.208452 4.58438 -7.60855 
3222 9 -0.594945 2.39221 23.393 32.4246 0 0 0 0 0 0 -7.01383 
3257 10 0.904852 0.341165 23.9139 32.3636 1 0 0 0 0 0 -9.31816 
1464 6 0.985457 1.82046 28.7926 -5.30082 0 0 0 0 0 0 -12.316 
2080 5 -0.517413 2.03537 27.8722 -6.97495 0 0 0 0 0 0 -5.24243 
1474 5 -0.553203 0.256104 27.2268 -5.26244 0 0 0 0 0 0 -5.66434 
1722 6 0.948452 1.08207 26.0845 -7.20737 0 0 0 0 0 0 -11.0566 
2078 5 -0.521698 3.53645 26.4435 -5.07638 0 0 0 0 0 0 -5.6618 
2024 5 -0.608016 2.03487 28.1637 -3.27404 0 0 0 0 0 0 -5.86946 
1434 5 -0.595768 0.527171 27.7167 -0.180191 0 0 0 0 0 0 -5.85956 
531 2 0.674049 1.73561 28.549 3.16101 0 -1 0 -1.89505 -2.03468 -1.19129 -10.9844 
2028 5 -0.646339 2.98643 26.9228 -0.88299 0 0 0 0 0 0 -5.35717 
1677 6 1.01774 0.654049 27.1289 -2.18933 0 0 0 0 0 0 -12.7828 
1518 6 0.945448 2.43127 28.7978 -0.143219 0 0 0 0 0 0 -12.2435 
656 1 -0.702702 3.13566 28.3126 1.74045 0 -1 0 -5.36583 1.73628 -2.97411 -6.00928 
5 1 -0.632269 0.806183 26.1631 2.98209 0 0 0 -2.38218 -1.23689 3.93754 -6.30569 
497 2 0.713804 3.08001 27.6553 8.12958 0 0 0 1.37719 -0.376986 2.23589 -10.7535 
509 2 0.660191 0.686161 27.8265 5.86791 0 0 0 -0.224537 -0.121501 1.04639 -10.5291 
689 1 -0.650967 2.3966 27.4337 4.81874 0 0 0 -3.54442 -3.84493 0.807311 -6.2526 
1044 3 -0.6628 2.21639 28.2819 9.92051 0 -1 0 0.96103 -3.71191 -1.14425 -6.91175 
344 1 -0.663411 0.737292 27.7127 7.75309 0 -1 0 1.51991 -2.4791 1.18514 -6.25435 
130 1 -0.614605 2.95375 29.3517 6.86127 0 -1 0 6.41365 -7.26597 1.5712 -6.50006 
1332 4 0.960597 0.736581 29.4619 8.65257 0 -1 0 -1.18344 -1.95898 2.41836 -10.8979 
88 1 -0.646987 0.266729 29.5329 4.70985 0 0 0 5.5331 0.507388 -1.44876 -6.42733 
1374 3 -0.597979 2.28653 26.9607 12.9697 0 0 0 1.43532 2.78729 4.89677 -7.24447 
760 4 0.934833 0.975412 27.5394 11.2399 0 0 0 0.177822 -2.45791 0.468689 -10.4671 
1131 3 -0.565869 1.18048 28.8809 17.2954 0 -1 0 8.35 6.22369 -1.07236 -7.11257 