ITEM: TIMESTEP
500000
ITEM: NUMBER OF ATOMS
3344
ITEM: BOX BOUNDS pp pp ff
0.0000000000000000e+00 2.9565597895300002e+01
0.0000000000000000e+00 2.9545719921200000e+01
-8.8921683279000003e+00 4.4289169250699999e+01
ITEM: ATOMS id type q x y z ix iy iz vx vy vz v_Ocoord v_Mcoord v_Tacoord v_Hfcoord c_ncoord[11] c_locpot[1] c_locpot[2] v_vtemp2 
1916 5 -0.648929 0.565397 1.81354 -5.14473 0 0 0 0 0 0 2 4 4 0 6 -0.25 0 0 
2060 6 0.966736 0.439399 0.297219 -6.42671 0 0 0 0 0 0 6 0 0 0 6 -0.25 0 0 
676 2 0.744358 0.52375 0.582415 2.46807 0 0 0 0.242161 0.94367 -2.50579 6 0 0 0 6 0 0 517.233 
446 2 0.689545 0.733229 0.506848 8.2627 0 0 0 -1.48148 -2.6758 0.0122836 6 0 0 0 6 0 0 669.412 
1368 4 1.00473 0.552851 1.83121 13.5428 1 0 0 -2.32604 1.105 0.72508 6 0 0 0 6 0 0 519.217 
2328 10 0.934624 0.544865 0.151354 22.1809 0 0 0 0.878421 0.496886 0.530657 6 0 0 0 6 0.249901 8.09791e-07 94.316 
3147 10 1.01855 0.644497 1.55627 25.0724 0 0 0 0.66061 0.0969816 1.75668 7 0 0 0 7 0.249946 4.57195e-07 256.208 
3132 9 -0.635207 0.679753 1.42961 29.1746 0 0 0 0 0 0 3 4 4 0 7 0.249997 -7.37718e-06 0 
305 1 -0.555976 1.23554 0.432688 4.56287 0 0 0 0.105071 0.311213 -2.13187 2 4 0 4 6 0 0 29.8434 
1406 3 -0.610632 1.23478 1.23406 16.9424 0 1 0 5.83531 -6.81486 4.72264 2 4 4 0 6 0 0 659.35 
403 1 -0.647266 1.71364 1.46416 11.8647 0 1 0 10.5537 -3.71622 0.278109 5 5 5 0 10 0 0 803.484 
2558 9 -0.593615 1.66046 1.22275 20.8976 0 0 0 -1.93669 -1.65379 -3.47539 4 3 3 0 7 0.249885 9.79441e-07 119.073 
2628 8 0.958337 1.84565 1.01622 18.9687 0 0 0 -0.547258 -0.505488 0.26222 6 0 0 0 6 0 0 45.2509 
3260 9 -0.596482 1.31052 0.751809 31.9011 0 0 0 0 0 0 3 3 3 0 6 0.25 0 0 
1964 5 -0.546753 2.09889 0.635642 -7.3032 0 0 0 0 0 0 5 3 3 0 8 -0.25 0 0 
1568 6 1.00677 2.40983 1.47782 -3.96776 0 0 0 0 0 0 6 0 0 0 6 -0.249996 1.03022e-05 0 
2094 6 1.02715 1.88086 1.48603 -0.680391 0 0 0 0 0 0 6 0 0 0 6 -0.249737 -7.74464e-07 0 
289 1 -0.488955 2.47247 1.23507 1.35681 0 0 0 -3.69023 -5.80295 0.742849 4 3 1 2 7 0 0 306.876 
1260 3 -0.627979 2.25899 1.0327 14.3036 0 1 0 -2.80563 -6.32599 -4.20553 4 4 4 0 8 0 0 420.614 
2510 9 -0.570386 2.08771 1.2029 23.5519 0 0 0 5.37201 0.988218 -0.152814 3 4 4 0 7 0.249913 7.12393e-07 191.515 
2784 10 0.922329 2.12342 0.27928 30.1509 0 0 0 0 0 0 7 0 0 0 7 0.25 -1.20543e-06 0 
318 1 -0.616767 3.57933 1.84152 3.84826 0 0 0 -2.07239 -3.71039 6.22658 2 4 0 4 6 0 0 364.528 
568 2 0.725058 3.54348 1.20714 7.19011 0 0 0 -0.365968 0.995225 -0.120917 6 0 0 0 6 0 0 81.5065 
862 3 -0.621309 2.77595 0.24449 9.02159 0 1 0 -2.29021 -2.32898 -3.60346 1 6 3 3 7 0 0 151.72 
2470 10 1.01303 3.44336 1.80315 21.7896 0 0 0 0.127889 -0.116961 -0.807087 6 0 0 0 6 0.249859 1.2165e-06 49.4335 
3315 9 -0.593598 3.1236 0.731628 28.4883 0 0 0 0 0 0 5 5 5 0 10 0.249995 -1.30002e-05 0 
3061 9 -0.500021 3.45108 0.783091 33.7918 0 0 0 0 0 0 2 4 0 4 6 0.25 0 0 
2042 5 -0.605991 3.88143 0.542646 -5.37079 0 0 0 0 0 0 6 4 4 0 10 -0.25 9.69617e-08 0 
1505 6 1.03748 3.73506 1.79056 -6.98584 0 0 0 0 0 0 6 0 0 0 6 -0.25 0 0 
1747 5 -0.58276 4.24191 1.20972 -2.94474 0 0 0 0 0 0 5 3 3 0 8 -0.249936 0.00015901 0 
364 1 -0.639361 4.26873 1.65336 11.1446 0 0 0 -5.16524 -0.184019 -5.04367 2 4 2 2 6 0 0 334.51 
1128 4 1.01779 3.85447 1.6067 13.1142 0 1 0 1.06434 -0.931104 -1.07888 6 0 0 0 6 0 0 229.512 
2640 7 -0.553393 3.78591 0.0557296 16.4086 0 0 0 -4.73412 4.43303 8.11285 5 5 5 0 10 0 0 691.968 
2569 7 -0.528546 3.87453 0.536308 18.9993 0 1 0 -1.11474 -4.48012 -5.54687 5 4 4 0 9 0 0 334.06 
2323 10 0.941271 4.0223 1.44025 26.6672 0 0 0 -0.0452486 1.24642 -3.17907 5 0 0 0 5 0.249969 2.26791e-07 846.021 
3319 9 -0.616152 3.97762 0.122441 31.2829 0 0 0 0 0 0 5 5 5 0 10 0.25 0 0 
3048 10 0.905545 4.18657 1.84405 32.4339 0 0 0 0 0 0 7 0 0 0 7 0.25 0 0 
1444 5 -0.405144 4.98526 0.995303 -8.33165 0 0 0 0 0 0 2 2 2 0 4 -0.25 0 0 
462 1 -0.596126 5.35455 1.21069 0.807485 0 0 0 1.81338 -2.95147 -5.89055 3 3 1 2 6 0 0 299.528 
53 2 0.730258 4.93937 0.158783 10.0292 0 0 0 1.18384 -0.930004 -0.138242 6 0 0 0 6 0 0 163.545 
419 2 0.702681 5.44147 1.52515 4.89805 0 0 0 -0.617375 0.0238598 0.182796 6 0 0 0 6 0 0 29.7063 
431 1 -0.611794 5.34023 0.926164 8.07569 0 1 0 -0.865175 5.23102 3.689 1 4 1 3 5 0 0 267.602 
1212 3 -0.557874 5.1435 0.39404 13.8387 0 0 0 -1.86512 -3.68854 4.17606 0 3 3 0 3 0 0 221.438 
2462 8 0.977094 5.53301 0.913724 17.3592 0 0 0 0.227938 2.16434 1.3651 7 0 0 0 7 0 0 478.778 
2324 9 -0.489432 4.93633 1.79777 23.3743 0 1 0 1.15777 -0.795369 -5.51134 3 3 3 0 6 0.24989 8.22972e-07 207.483 
3053 9 -0.635515 4.62916 0.0153643 25.3813 0 0 0 -3.01909 -5.36928 2.07081 3 4 4 0 7 0.249939 4.04702e-07 270.884 
1765 6 1.01632 5.6873 1.27875 -4.40744 0 0 0 0 0 0 7 0 0 0 7 -0.249998 5.17516e-06 0 
2452 10 0.966992 6.09772 0.0843534 23.636 0 0 0 -1.05402 -2.03225 -0.582624 6 0 0 0 6 0.2499 5.76139e-07 404.83 
2981 10 1.04225 5.56077 0.658066 29.5097 0 0 0 0 0 0 7 0 0 0 7 0.25 -1.16873e-06 0 
2871 9 -0.482776 6.215 0.614961 32.9195 0 0 0 0 0 0 2 3 3 0 5 0.25 0 0 
1655 5 -0.49383 6.71174 0.832704 -1.31394 0 0 0 0 0 0 4 4 3 1 8 -0.249818 -5.46954e-07 0 
752 4 0.96528 7.11595 1.22362 13.9637 0 1 0 -1.4221 0.577142 -1.16688 7 0 0 0 7 0 0 269.652 
1240 3 -0.575444 6.60913 0.231198 21.5614 0 0 0 -6.82181 3.78933 -0.799427 3 3 3 0 6 0 0 394.695 
1457 5 -0.438243 7.63017 1.51366 -7.75955 0 0 0 0 0 0 4 2 2 0 6 -0.25 0 0 
1720 5 -0.59626 7.72777 1.64954 -4.36983 0 0 0 0 0 0 4 4 4 0 8 -0.249999 3.35552e-06 0 
582 2 0.709484 8.1904 1.40584 3.95317 0 0 0 -0.252379 -1.08703 -1.15536 6 0 0 0 6 0 0 184.632 
227 1 -0.551238 7.96105 0.0515195 2.65949 0 1 0 -2.62131 2.5516 7.59167 2 4 0 4 6 0 0 455.502 
1061 4 0.973531 8.29912 0.807354 10.2809 0 0 0 0.971122 -2.06322 -0.926786 7 0 0 0 7 0 0 439.538 
2619 9 -0.566546 7.48411 1.41272 24.1634 0 0 0 -1.84548 -3.62851 -5.72446 5 4 4 0 9 0.249892 5.16424e-07 316.481 
3091 9 -0.60698 7.83876 0.749572 28.4887 0 0 0 0 0 0 5 5 5 0 10 0.249992 -2.09349e-05 0 
1875 5 -0.604424 9.10952 0.014567 -6.25204 0 0 0 0 0 0 5 3 3 0 8 -0.25 0 0 
2008 6 1.02186 8.91277 1.19651 -0.834599 0 0 0 0 0 0 6 0 0 0 6 -0.249953 -1.46122e-07 0 
43 2 0.720552 8.70624 0.651592 7.09326 0 0 0 0.0872339 -2.03739 -0.921263 6 0 0 0 6 0 0 358.311 
338 1 -0.616418 9.22999 1.71544 8.73938 0 1 0 -3.83675 -0.642585 1.05862 6 4 3 1 10 0 0 104.257 
1168 3 -0.582606 8.90348 0.53412 17.3516 0 0 0 -8.28526 -0.243083 -1.23434 5 3 3 0 8 0 0 450.453 
740 3 -0.612594 8.61208 1.81595 12.3057 0 0 0 2.6502 -2.40296 -2.64645 4 4 4 0 8 0 0 127.009 
2184 9 -0.666653 8.65125 1.05144 20.0225 0 0 0 10.9566 -6.07912 -8.83721 3 4 4 0 7 0.248943 1.4462e-06 1507.96 
3199 10 1.01395 9.05238 0.700276 30.1712 0 0 0 0 0 0 6 0 0 0 6 0.25 -4.12685e-07 0 
2891 9 -0.666558 9.19042 0.101982 26.2699 0 1 0 -1.02379 -0.334438 -1.49338 4 4 4 0 8 0.249939 2.32582e-07 21.745 
2936 9 -0.664854 8.41326 1.46339 31.7808 0 0 0 0 0 0 4 4 4 0 8 0.25 0 0 
1486 5 -0.635603 9.27255 0.356614 -2.53512 0 0 0 0 0 0 5 4 4 0 9 -0.249989 2.71937e-05 0 
156 1 -0.656845 9.43789 0.351213 5.2921 0 1 0 3.1573 -4.68889 5.51203 3 4 1 3 7 0 0 399.835 
808 4 0.989622 9.93068 0.72682 13.268 0 1 0 -0.222543 -0.530863 -1.17316 6 0 0 0 6 0 0 123.88 
1194 3 -0.591795 9.455 1.6883 15.0238 0 0 0 2.96496 -2.58502 0.988475 5 5 5 0 10 0 0 105.515 
2135 7 -0.610846 10.0701 1.16243 23.3042 0 0 0 2.76095 -7.05857 4.41466 1 4 4 0 5 0 0 493.474 
2284 10 0.93585 9.76923 0.198993 21.5456 0 1 0 0.37535 1.26851 1.89559 6 0 0 0 6 0.249463 1.00779e-06 387.623 
3013 10 0.929004 9.45075 1.84221 26.7768 0 0 0 0.401012 -1.27777 -1.33036 6 0 0 0 6 0.249954 1.91829e-07 258.502 
2702 9 -0.488693 9.94437 0.268895 33.4083 0 0 0 0 0 0 3 3 3 0 6 0.25 0 0 
1675 5 -0.395095 10.3041 0.804316 -8.66604 0 0 0 0 0 0 3 2 2 0 5 -0.25 0 0 
1781 5 -0.595155 10.6491 1.72359 -4.86992 0 0 0 0 0 0 6 4 4 0 10 -0.25 1.43839e-08 0 
619 1 -0.632221 10.6181 0.883515 0.403939 0 0 0 -3.10047 -5.73605 -2.05112 4 4 1 3 8 0 0 299.683 
562 1 -0.621472 10.9697 0.764546 3.12775 0 0 0 1.31987 9.61636 -6.34839 3 4 1 3 7 0 0 862.819 
255 1 -0.545715 10.631 0.744407 10.9135 0 0 0 -0.335808 -1.87011 -0.790071 5 5 5 0 10 0 0 27.1592 
741 4 0.967766 10.9806 1.64415 4.94439 0 0 0 -0.343219 2.19749 -1.6715 6 0 0 0 6 0 0 561.539 
948 4 1.01967 10.7527 0.362573 16.5188 0 0 0 -1.42898 -0.0141442 0.759735 7 0 0 0 7 0 0 190.02 
1952 6 1.02601 11.9793 0.109213 -5.38418 0 0 0 0 0 0 6 0 0 0 6 -0.25 0 0 
1685 5 -0.611372 11.7952 0.419201 -2.06125 0 0 0 0 0 0 7 4 3 1 11 -0.249998 6.20384e-06 0 
1248 4 0.889134 11.3747 1.2317 8.45227 0 1 0 1.29988 0.673179 1.05564 6 0 0 0 6 0 0 236.293 
2556 9 -0.523342 11.4068 1.38278 20.6423 0 1 0 2.59804 -2.30875 2.54419 1 3 3 0 4 0.249553 9.90166e-07 119.001 
2673 9 -0.619373 11.627 1.0221 26.4147 0 0 0 4.66059 -3.02542 -0.0588457 3 4 4 0 7 0.249936 2.43023e-07 198.054 
1618 5 -0.611764 12.423 1.59185 -6.77081 0 0 0 0 0 0 5 3 3 0 8 -0.25 0 0 
1589 6 0.823536 12.128 0.884716 -8.43919 0 0 0 0 0 0 3 0 0 0 3 -0.25 0 0 
135 2 0.812065 12.4905 0.936139 -0.271834 0 0 0 0 0 0 6 0 0 0 6 0 0 0 
386 1 -0.681103 12.2396 0.95286 6.42447 0 0 0 -2.15246 -2.65948 -2.64384 1 4 4 0 5 0 0 119.917 
1279 4 0.965841 12.5609 0.45939 11.3963 0 0 0 0.761162 -0.47406 -1.03321 7 0 0 0 7 0 0 135.776 
3278 9 -0.610738 12.8981 1.04198 23.1339 0 0 0 -0.976013 -1.95151 2.78742 3 4 4 0 7 0.249799 6.25553e-07 80.3734 
3329 10 1.02626 12.4159 1.62106 31.2252 0 0 0 0 0 0 6 0 0 0 6 0.25 -4.89904e-07 0 
1725 5 -0.604668 13.522 1.03746 -3.95826 0 0 0 0 0 0 4 4 4 0 8 -0.25 2.86978e-07 0 
438 1 -0.498889 13.3952 1.09547 1.65802 0 0 0 -3.04599 -3.45549 0.326637 2 4 0 4 6 0 0 136.782 
132 1 -0.639026 13.3261 1.13891 9.65493 0 1 0 0.909913 2.31358 -1.38371 4 4 4 0 8 0 0 51.9239 
2330 7 -0.561661 13.5009 1.502 18.3462 0 0 0 -4.57575 -6.12812 3.01605 4 4 4 0 8 0 0 433.518 
2972 9 -0.626759 13.274 1.34725 29.3302 0 0 0 0 0 0 5 4 4 0 9 0.249996 -1.05558e-05 0 
1478 5 -0.615345 14.6219 0.32326 -7.01123 0 0 0 0 0 0 4 3 3 0 7 -0.25 0 0 
527 1 -0.610992 14.3785 0.117302 4.13768 0 0 0 -4.91807 -6.37802 -1.25408 2 4 0 4 6 0 0 426.15 
1409 4 0.901482 14.0175 0.132143 16.8574 0 0 0 -1.38151 -1.1235 1.22096 7 0 0 0 7 0 0 338.171 
810 3 -0.605428 14.5579 0.422984 14.223 0 1 0 2.18484 4.623 1.99717 6 4 4 0 10 0 0 193.285 
2591 10 0.975211 14.4925 0.701911 19.9264 0 0 0 0.80113 -1.76991 0.869659 6 0 0 0 6 0.249835 5.80905e-07 328.676 
2852 9 -0.597251 13.9417 0.691476 31.8906 0 0 0 0 0 0 4 3 3 0 7 0.25 0 0 
374 1 -0.515302 0.586793 2.58023 2.81588 0 0 0 2.8334 2.0833 1.37394 3 5 0 5 8 0 0 91.4398 
996 3 -0.642231 0.690829 2.25069 9.40418 0 0 0 8.94005 5.07994 -7.30443 2 4 3 1 6 0 0 1020.39 
3139 9 -0.531803 0.112062 3.5819 21.3453 1 0 0 1.97806 -1.91024 -5.68126 4 3 3 0 7 0.249898 9.36575e-07 255.529 
2044 5 -0.629933 1.37469 2.08479 -2.3641 0 0 0 0 0 0 2 3 3 0 5 -0.249939 0.000152312 0 
1779 6 1.04484 0.93901 3.49828 -6.2669 0 0 0 0 0 0 6 0 0 0 6 -0.25 0 0 
639 1 -0.532424 1.71919 1.90267 6.77056 0 0 0 -1.58108 -4.12951 -2.60149 4 4 0 4 8 0 0 168.822 
1219 3 -0.604089 1.47245 3.5109 14.0153 0 0 0 4.33154 -1.56129 -4.36232 5 5 5 0 10 0 0 258.038 
3238 10 1.00155 1.392 2.77277 31.8487 0 0 0 0 0 0 5 0 0 0 5 0.25 -2.83352e-08 0 
1452 5 -0.405714 2.28651 3.14292 -7.53225 0 0 0 0 0 0 5 2 2 0 7 -0.25 0 0 
85 2 0.747475 2.39257 3.41984 4.10921 0 0 0 0.426611 0.547799 1.24528 4 0 0 0 4 -0.216128 -0.000104506 145.463 
864 4 1.00197 2.58325 2.46219 10.2714 0 0 0 -1.59138 0.208007 0.87854 7 0 0 0 7 0 0 242.849 
2580 8 0.987558 2.67147 2.55597 16.1227 0 0 0 -0.349383 1.27658 -1.6685 7 0 0 0 7 0 0 329.032 
2461 7 -0.60632 2.62688 2.92283 18.995 0 0 0 -1.0587 5.51192 -0.998247 5 3 3 0 8 0 0 208.45 
2668 9 -0.65585 2.2044 2.33245 26.1875 0 0 0 -7.36319 -3.19013 5.00647 2 4 4 0 6 0.249961 3.16519e-07 573.797 
2995 10 0.974175 1.88676 2.56419 28.2937 0 0 0 1.35973 0.824581 0.274769 6 0 0 0 6 0.249993 5.98983e-08 188.927 
3069 9 -0.591993 2.68933 3.28581 33.1228 0 0 0 0 0 0 2 3 3 0 5 0.25 0 0 
2099 5 -0.519206 3.07432 3.05338 -4.85298 0 0 0 0 0 0 5 4 4 0 9 -0.25 0 0 
556 1 -0.543579 3.39796 3.05069 8.52006 0 0 0 -2.60923 -1.44394 -0.807438 4 4 1 3 8 0 0 61.223 
2963 9 -0.665234 2.93678 2.49625 30.6363 0 0 0 0 0 0 6 5 5 0 11 0.25 -6.98444e-07 0 
1845 5 -0.588398 3.70901 2.63933 -0.891994 0 0 0 0 0 0 4 3 3 0 7 -0.249325 -2.06687e-06 0 
685 2 0.778724 4.13556 2.29519 1.88845 0 0 0 -0.56679 2.13026 -1.20019 5 0 0 0 5 -0.2414 -2.66287e-05 450.796 
748 3 -0.627676 4.04716 2.98423 14.5246 0 0 0 -0.275446 4.34891 6.29754 5 4 4 0 9 0 0 376.175 
1149 3 -0.597113 4.5053 2.57903 16.9675 0 0 0 -9.20923 3.11253 1.65283 5 4 4 0 9 0 0 623.644 
1181 4 1.01318 4.54665 3.44981 18.8759 0 0 0 0.488162 0.226557 -0.596981 6 0 0 0 6 0 0 46.8649 
1864 5 -0.56377 5.46951 2.51635 -6.02753 0 0 0 0 0 0 3 3 3 0 6 -0.25 0 0 
155 1 -0.578383 4.74218 3.063 6.20032 0 0 0 0.408847 -3.9504 0.0079427 2 4 0 4 6 0 0 101.169 
2400 9 -0.670767 5.04423 2.53888 20.8452 0 0 0 -2.99886 5.11514 -2.75804 4 4 4 0 8 0.249779 2.08123e-06 274.298 
2736 9 -0.574807 4.88769 3.18324 25.8266 0 0 0 0.242093 -0.760451 -0.866326 1 4 4 0 5 0.249954 3.18147e-07 8.89906 
3080 9 -0.654859 5.29801 2.0116 28.2446 0 0 0 0 0 0 5 4 4 0 9 0.249994 -1.4061e-05 0 
1734 5 -0.620136 5.89902 3.08647 -2.87765 0 0 0 0 0 0 4 4 4 0 8 -0.249933 0.00016672 0 
1832 6 1.00507 5.70544 2.515 -0.833516 0 0 0 0 0 0 5 0 0 0 5 -0.249499 -1.53844e-06 0 
510 1 -0.559236 6.01648 2.50099 3.19571 0 0 0 -3.21446 -3.1873 1.36453 3 4 0 4 7 0 0 143.379 
490 2 0.755892 5.74695 3.0576 8.10377 0 0 0 0.763536 0.640027 -0.922691 6 0 0 0 6 0 0 131.952 
566 2 0.721723 5.69986 3.37474 11.1013 0 0 0 0.837379 1.28299 0.824331 6 0 0 0 6 0 0 216.592 
80 1 -0.571985 6.40623 2.87474 13.0537 0 0 0 -3.95152 -1.67869 -0.341045 4 4 3 1 8 0 0 118.975 
1134 4 0.994294 5.82058 3.61291 15.2517 0 0 0 1.8838 -2.17613 1.20339 6 0 0 0 6 0 0 706.028 
2950 9 -0.629205 5.59395 2.20411 30.6577 0 0 0 0 0 0 6 4 4 0 10 0.25 0 0 
65 1 -0.523341 6.80623 2.34612 9.90142 0 0 0 3.89014 7.81561 -4.73811 4 3 1 2 7 0 0 632.86 
512 1 -0.57892 7.2702 1.88974 6.0557 0 1 0 -7.9653 -4.04289 -4.73523 3 4 0 4 7 0 0 655.61 
1347 3 -0.628095 6.92969 2.14927 15.7492 0 0 0 5.05717 -0.298263 4.16974 3 4 4 0 7 0 0 276.132 
2412 8 1.06418 6.79134 1.90202 20.5347 0 0 0 -0.307524 -1.77082 -0.671364 6 0 0 0 6 0 0 267.044 
1016 3 -0.614323 6.46815 2.32045 18.5922 0 1 0 4.35213 0.224571 3.81283 4 4 4 0 8 0 0 215.06 
2721 10 0.953704 6.46753 3.04669 24.7598 0 0 0 -2.35281 0.530893 0.736682 5 0 0 0 5 0.249922 4.61422e-07 461.402 
3233 10 0.821999 6.82113 3.01238 28.1605 0 0 0 0 0 0 5 1 1 0 6 0.24999 -2.59818e-05 0 
3054 10 1.03135 7.10018 3.0552 31.6644 0 0 0 0 0 0 1 4 0 4 5 0.25 0 0 
1838 6 1.04468 7.7682 3.45886 -3.31166 0 0 0 0 0 0 7 0 0 0 7 -0.249993 1.7865e-05 0 
2559 8 0.957892 8.28254 2.45951 17.1686 0 0 0 -0.733839 -0.41532 0.918561 7 0 0 0 7 0 0 112.789 
1370 3 -0.480179 7.64184 2.8799 21.9228 0 0 0 -1.95143 -1.56822 -0.0209733 2 2 2 0 4 0 0 40.2028 
3014 9 -0.567893 8.11017 2.98742 29.829 0 0 0 0 0 0 8 4 4 0 12 0.25 -1.1878e-06 0 
3302 9 -0.69577 7.83272 3.04348 26.318 0 0 0 3.33672 -3.83121 -1.71404 1 4 4 0 5 0.249951 2.47296e-07 184.405 
3088 9 -0.444282 8.11583 3.33314 33.409 0 0 0 0 0 0 3 2 2 0 5 0.25 0 0 
1797 6 1.00286 8.90005 1.96386 -6.22444 0 0 0 0 0 0 6 0 0 0 6 -0.25 0 0 
1872 5 -0.665083 8.83065 2.81271 -1.73961 0 0 0 0 0 0 3 4 3 1 7 -0.249972 -8.93172e-08 0 
396 1 -0.508674 8.58539 2.39036 1.1309 0 0 0 4.12911 1.1525 2.12384 4 4 1 3 8 0 0 146.81 
2313 10 0.932298 9.16915 2.90472 23.3886 0 0 0 -0.00219422 0.908482 0.75063 6 0 0 0 6 0.249789 7.93459e-07 100.749 
56 1 -0.555255 9.47549 3.13401 3.58275 0 0 0 -5.03072 -6.28537 0.623812 1 4 1 3 5 0 0 418.221 
616 1 -0.602658 10.0331 2.8437 6.37122 0 0 0 1.05627 -2.34289 -3.31816 2 4 2 2 6 0 0 112.985 
2613 8 1.00389 9.88916 2.76836 19.8529 0 0 0 0.948662 1.15978 -1.44853 6 0 0 0 6 0 0 315.081 
2868 10 0.88592 9.90174 2.54585 32.8441 0 0 0 0 0 0 6 0 0 0 6 0.25 0 0 
1603 5 -0.521452 10.1944 3.06867 -7.24986 0 0 0 0 0 0 5 3 3 0 8 -0.25 0 0 
1652 6 0.980686 10.6696 2.18305 -2.91236 0 0 0 0 0 0 7 0 0 0 7 -0.249995 1.21016e-05 0 
539 2 0.77592 10.5236 2.45865 1.93135 0 0 0 1.17617 0.288705 1.13505 5 0 0 0 5 -0.249932 -5.86225e-07 197.146 
1304 4 0.977094 10.4753 3.29792 14.8816 0 0 0 1.64431 1.34199 0.934227 7 0 0 0 7 0 0 390.104 
1021 3 -0.572332 10.4523 2.40041 18.0462 0 0 0 5.73819 -6.51121 -3.24846 4 4 4 0 8 0 0 550.815 
2562 9 -0.649866 10.2665 3.57543 21.6758 0 0 0 -2.46757 3.83613 3.47985 5 4 4 0 9 0.249686 9.90382e-07 211.116 
2819 9 -0.612519 10.2976 2.99634 28.0976 0 0 0 0 0 0 3 4 4 0 7 0.249986 -3.6174e-05 0 
2731 9 -0.576538 10.4935 3.21985 25.265 0 0 0 -4.54174 -1.4722 -3.38052 2 5 5 0 7 0.249863 5.47663e-07 219.509 
2815 9 -0.601342 10.706 2.29401 30.5643 0 0 0 0 0 0 7 5 5 0 12 0.249999 -1.4157e-06 0 
1667 5 -0.583195 11.6086 2.8155 -1.15167 0 0 0 0 0 0 5 4 3 1 9 -0.249982 -6.76919e-08 0 
971 3 -0.619935 11.5318 3.0054 9.42259 0 0 0 -8.67529 -0.566254 -4.92794 5 4 4 0 9 0 0 640.552 
1093 4 0.951465 11.2084 3.33642 11.5504 0 0 0 -1.50351 -0.810841 -0.557909 6 0 0 0 6 0 0 234.265 
1148 3 -0.623995 11.962 1.90054 15.8129 0 0 0 2.46685 1 1.75208 5 4 4 0 9 0 0 65.1364 
869 3 -0.625323 11.3056 2.09078 13.2074 0 0 0 -0.720268 0.511948 6.67807 6 5 5 0 11 0 0 291.057 
2883 9 -0.535378 11.9946 2.65871 32.8145 0 0 0 0 0 0 2 3 3 0 5 0.25 0 0 
1525 6 1.06254 12.1252 3.21352 -5.83563 0 0 0 0 0 0 7 0 0 0 7 -0.25 0 0 
1756 5 -0.529784 12.2994 3.39059 -3.64621 0 0 0 0 0 0 7 4 4 0 11 -0.249998 5.58856e-06 0 
525 1 -0.619542 12.6956 2.65632 4.21144 0 0 0 2.53271 -1.44275 6.00814 1 4 2 2 5 0 0 286.031 
2240 8 0.997298 12.3305 3.06249 17.696 0 0 0 1.21381 -0.567384 0.0496711 6 0 0 0 6 0 0 130.416 
2280 10 0.993057 12.3467 2.81783 21.5715 0 0 0 0.464256 -0.66996 -0.488876 6 0 0 0 6 0.249697 9.12604e-07 65.5351 
2142 10 0.942128 12.0229 2.08319 24.666 0 0 0 -0.503796 -0.151274 1.06029 6 0 0 0 6 0.249859 5.03338e-07 101.628 
2741 10 0.932261 12.0206 2.04946 28.2066 0 0 0 1.76647 -1.18001 0.822542 6 0 0 0 6 0.24998 7.57097e-08 376.462 
2113 6 0.950774 13.6805 2.55281 -2.42422 0 0 0 0 0 0 6 1 1 0 7 -0.249983 4.22849e-05 0 
1273 4 0.92329 13.5459 3.19854 9.35181 0 0 0 -0.425318 -0.249073 1.13815 6 0 0 0 6 0 0 111.596 
811 3 -0.660913 13.1431 3.6016 7.27147 0 0 0 1.29672 3.2181 4.86843 2 4 4 0 6 0 0 229.236 
898 4 0.943919 13.8062 2.15742 6.02917 0 0 0 -1.60721 0.419462 -0.320858 5 0 0 0 5 -0.0888868 -0.000206341 207.623 
1074 3 -0.547096 13.6535 2.09096 12.1921 0 0 0 -3.47623 -0.860365 -2.6041 5 3 3 0 8 0 0 125.754 
1222 4 0.986132 13.2772 2.07643 14.3358 0 0 0 -0.955726 1.12572 0.937624 6 0 0 0 6 0 0 221.971 
2239 9 -0.664621 13.5642 2.66143 25.633 0 0 0 0.898152 1.24471 -0.99321 4 4 4 0 8 0.24991 3.41405e-07 21.4389 
1778 5 -0.574532 14.263 3.27485 -5.59741 0 0 0 0 0 0 5 4 4 0 9 -0.25 0 0 
1636 5 -0.647223 14.0157 2.09047 -0.574057 0 0 0 0 0 0 5 4 1 3 9 -0.249951 -1.15688e-07 0 
693 2 0.723073 14.5354 2.05409 3.01423 0 0 0 0.33266 -1.13544 -0.469308 6 0 0 0 6 0 0 115.934 
148 2 0.707288 13.9137 3.69077 0.766441 0 0 0 -0.136863 -2.73085 -1.10524 6 0 0 0 6 -0.249933 -2.15544e-07 622.4 
2204 7 -0.592401 14.7782 2.36616 16.0819 0 0 0 -2.3141 -0.46429 -5.6271 6 5 5 0 11 0 0 238.83 
1239 3 -0.506987 14.0613 2.67256 20.7309 0 0 0 -3.98384 -4.0031 2.88247 3 3 3 0 6 0 0 257.876 
2994 9 -0.650835 14.5293 3.14471 28.0358 0 0 0 0 0 0 8 5 5 0 13 0.249982 -4.59645e-05 0 
1436 5 -0.562957 0.626464 4.5211 -4.58297 0 0 0 0 0 0 6 3 3 0 9 -0.25 1.55953e-08 0 
2022 6 1.04705 0.891188 4.04809 -2.78442 0 0 0 0 0 0 6 0 0 0 6 -0.249975 6.36211e-05 0 
2583 9 -0.604855 0.45661 5.07388 7.88641 0 0 0 -3.34388 -0.134466 -1.88191 1 4 3 1 5 -0.0136773 -5.64543e-05 94.5518 
25 1 -0.586999 0.885157 3.95426 5.32203 0 0 0 2.08289 0.333621 0.437566 2 4 0 4 6 0 0 29.7691 
791 4 0.905869 0.620219 4.80294 11.9533 1 0 0 0.0167623 0.833635 -1.94927 6 0 0 0 6 0 0 326.077 
1318 4 0.892774 0.404971 4.93915 14.9578 0 0 0 -4.38485 -0.960657 -0.50918 6 0 0 0 6 0 0 1480.56 
3154 9 -0.610962 0.680911 4.08775 28.1362 0 0 0 0 0 0 4 3 3 0 7 0.249993 -1.63925e-05 0 
1853 5 -0.603012 0.966139 4.67692 -0.752145 0 0 0 0 0 0 4 5 4 1 9 -0.249829 -5.11177e-07 0 
634 2 0.73451 0.932723 4.37344 1.3585 0 0 0 1.83604 -0.0621818 -0.18065 7 0 0 0 7 0 0 243.836 
1340 3 -0.575826 1.60856 4.07702 16.6469 1 0 0 1.89249 5.80344 1.82093 6 4 4 0 10 0 0 260.267 
2217 9 -0.544993 1.01316 3.7261 24.0806 0 0 0 2.2265 -4.5122 -3.0042 6 4 4 0 10 0.249925 6.68178e-07 220.277 
2134 8 1.04713 1.46416 4.14656 19.8718 0 0 0 0.500678 -1.15778 0.0163892 6 0 0 0 6 0 0 115.448 
2652 9 -0.628384 1.14889 4.39909 30.766 0 0 0 0 0 0 7 0 0 0 7 0.25 -2.02608e-07 0 
1917 5 -0.581144 2.67877 4.5683 -2.74178 0 0 0 0 0 0 5 3 3 0 8 -0.249907 0.000232602 0 
550 2 0.747429 2.07638 4.00328 7.20134 0 0 0 -0.812771 -0.10788 -0.780625 5 0 0 0 5 0 0 91.7095 
765 3 -0.584979 1.97209 4.52042 10.3471 0 0 0 3.30918 -0.0152816 5.40423 5 4 4 0 9 0 0 257.57 
2179 10 0.977776 2.07219 5.22011 22.8352 0 0 0 0.774919 -1.96364 0.80873 6 0 0 0 6 0.249891 9.88029e-07 370.732 
3116 10 0.946154 2.51395 4.21193 25.7116 0 0 0 -1.03444 0.738957 -0.298453 7 0 0 0 7 0.249946 4.61341e-07 123.703 
1885 6 0.983888 3.03601 4.47604 -0.708394 0 0 0 0 0 0 6 0 0 0 6 -0.249406 -1.79547e-06 0 
620 1 -0.636526 2.9955 4.01665 1.40154 0 0 0 2.81478 -0.805625 0.265334 2 4 1 3 6 0 0 55.4336 
801 4 0.959537 3.46505 4.88094 13.7567 0 0 0 -1.09955 0.159154 -0.964417 7 0 0 0 7 0 0 157.017 
2194 9 -0.552588 2.8267 3.73265 21.4731 0 0 0 2.22359 0.14872 2.83171 6 4 4 0 10 0.249844 1.4281e-06 83.288 
2498 9 -0.560084 3.58608 4.65515 23.7821 0 0 0 0.040677 0.0366974 -2.74739 5 4 4 0 9 0.249907 8.05514e-07 48.4341 
2890 9 -0.603788 3.44641 3.78611 28.1849 0 0 0 0 0 0 5 4 4 0 9 0.249991 -2.26636e-05 0 
3101 10 0.842357 3.40644 5.05533 33.1662 0 0 0 0 0 0 5 1 1 0 6 0.25 0 0 
2086 5 -0.387788 4.53391 4.43896 -7.54119 0 0 0 0 0 0 4 2 2 0 6 -0.25 0 0 
2009 6 1.0232 4.36431 4.35498 -3.63585 0 0 0 0 0 0 6 0 0 0 6 -0.249973 6.74489e-05 0 
123 1 -0.625931 3.87796 4.99998 3.92799 0 0 0 1.721 -4.67278 4.07543 1 4 0 4 5 0 0 265.582 
1030 3 -0.609053 3.9739 4.10729 12.0497 0 0 0 -1.24636 -0.861114 2.14157 4 5 4 1 9 0 0 44.1373 
2383 9 -0.582888 3.7204 5.32343 18.2876 0 0 0 3.20929 4.83086 0.28461 3 3 3 0 6 0.24897 1.10157e-05 216.27 
3225 10 1.04286 4.18042 3.77198 30.0868 0 0 0 0 0 0 6 0 0 0 6 0.25 -8.64216e-07 0 
3133 9 -0.637429 3.86249 5.29362 31.1761 0 0 0 0 0 0 4 4 4 0 8 0.25 0 0 
1969 5 -0.607757 4.68733 5.20631 -1.40005 0 0 0 0 0 0 5 4 4 0 9 -0.249668 -1.00334e-06 0 
440 1 -0.640984 5.0278 4.74536 9.44349 0 0 0 0.0550542 -3.07617 4.80357 2 4 2 2 6 0 0 208.716 
14 2 0.7616 5.32779 4.69841 5.1593 0 0 0 -0.741751 -0.472745 2.09883 4 0 0 0 4 -0.19412 -0.000176596 370.582 
2195 8 0.989209 5.16914 4.51897 21.8277 0 0 0 -1.01327 1.79614 0.296082 6 0 0 0 6 0 0 314.877 
3323 10 0.858314 4.98498 4.84462 27.4597 0 0 0 -0.900821 -0.28286 -2.17217 6 1 1 0 7 0.249973 1.95836e-07 406.959 
3185 9 -0.570308 5.53122 3.87318 32.6633 0 0 0 0 0 0 3 4 4 0 7 0.25 0 0 
2017 6 1.04282 6.32159 4.15256 -6.56845 0 0 0 0 0 0 6 0 0 0 6 -0.25 0 0 
1808 5 -0.62034 6.00788 4.95436 -4.65949 0 0 0 0 0 0 4 4 4 0 8 -0.249999 2.25196e-06 0 
2226 9 -0.626373 6.15576 4.97596 16.7864 0 0 0 4.79139 4.93121 2.96333 1 3 3 0 4 0.248501 1.62314e-05 359.547 
537 1 -0.603261 5.79377 5.25084 14.0839 0 0 0 2.23254 2.32214 6.11157 3 4 4 0 7 0 0 306.133 
2578 9 -0.633361 5.77943 4.85566 19.7368 0 0 0 1.72525 0.0481944 2.97555 5 4 4 0 9 0.249357 6.65206e-06 75.8966 
795 3 -0.614353 6.12007 4.58381 23.562 0 0 0 -7.62637 -3.91115 0.933532 3 4 4 0 7 0 0 476.762 
3024 9 -0.655555 5.81725 4.42762 29.2591 0 0 0 0 0 0 6 4 4 0 10 0.249998 -5.94578e-06 0 
1515 5 -0.390949 7.06813 3.90054 -8.71083 0 0 0 0 0 0 2 2 2 0 4 -0.25 0 0 
1716 6 0.94779 6.55301 5.52071 -1.14157 0 0 0 0 0 0 5 1 0 1 6 -0.249857 -4.33769e-07 0 
390 2 0.722983 6.9602 4.04108 2.4318 0 0 0 -0.832923 -1.62063 -1.21114 6 0 0 0 6 0 0 342.554 
184 1 -0.655875 6.60385 3.88679 0.0920288 0 0 0 6.4538 -7.68279 -0.67301 3 4 2 2 7 0 0 648.659 
524 1 -0.614803 7.24378 4.66655 4.43086 0 0 0 -11.0823 3.21959 -2.96953 3 5 0 5 8 0 0 910.817 
1395 3 -0.619478 7.02723 5.24749 11.1974 0 0 0 5.03745 -7.7983 0.739793 3 5 4 1 8 0 0 556.34 
1012 4 1.03406 7.3076 5.06358 18.5432 0 0 0 -1.65574 0.671891 0.46379 5 0 0 0 5 0 0 247.232 
1798 5 -0.656439 8.04971 3.77153 -5.92421 0 0 0 0 0 0 4 5 5 0 9 -0.25 0 0 
2074 5 -0.70324 7.60378 5.27397 -2.61894 0 0 0 0 0 0 5 4 4 0 9 -0.249972 7.01232e-05 0 
33 2 0.711918 8.18408 3.75591 6.09231 0 0 0 0.460349 -0.874434 -1.40158 5 0 0 0 5 0 0 210.451 
1202 3 -0.612966 7.5063 4.03147 7.99707 0 0 0 -2.07961 0.193587 3.41246 1 4 2 2 5 0 0 102.672 
1313 4 0.959672 8.28255 3.83377 12.5128 0 0 0 1.74276 0.745434 -0.208455 7 0 0 0 7 0 0 263.795 
3290 9 -0.640412 7.54203 5.09561 31.1451 0 0 0 0 0 0 5 4 4 0 9 0.25 0 0 
1445 6 0.866566 8.87963 3.977 -8.45619 0 0 0 0 0 0 4 0 0 0 4 -0.25 0 0 
124 2 0.665718 8.66545 4.12841 -0.243156 0 0 0 0 0 0 6 1 1 0 7 0 0 0 
615 1 -0.653873 8.98174 5.12649 1.49704 0 0 0 -5.27051 2.44935 -6.24135 2 5 0 5 7 0 0 466.513 
1382 3 -0.590314 8.42667 4.20387 14.3296 0 0 0 -4.13666 6.41368 -6.50746 4 3 3 0 7 0 0 645.224 
735 3 -0.600836 8.91331 4.37271 16.8333 0 0 0 1.12721 -3.90208 0.228523 5 5 5 0 10 0 0 106.148 
2353 9 -0.643777 8.9552 4.79221 23.9325 0 0 0 -0.47212 -1.20913 0.788228 2 5 5 0 7 0.249805 9.01913e-07 14.7923 
1104 3 -0.592435 8.38709 3.77586 19.3591 0 0 0 4.57807 3.51614 0.248256 3 4 4 0 7 0 0 214.127 
3336 9 -0.675105 8.8897 5.42748 28.7146 0 0 0 0 0 0 5 4 4 0 9 0.24999 -2.60221e-05 0 
2661 10 0.802924 8.84299 4.71529 26.7066 0 0 0 -0.269699 -1.10008 0.731897 7 0 0 0 7 0.249936 3.1446e-07 131.929 
1773 6 1.02679 9.46426 5.14138 -5.49567 0 0 0 0 0 0 6 0 0 0 6 -0.25 0 0 
1599 5 -0.512553 9.62046 3.98375 -3.84718 0 0 0 0 0 0 6 3 3 0 9 -0.249998 4.19902e-06 0 
624 2 0.737255 9.29383 5.35932 3.91125 0 0 0 -0.969589 0.581408 -0.69389 7 0 0 0 7 0 0 125.915 
454 1 -0.662905 9.38341 4.04596 10.9424 0 0 0 0.51465 -10.1287 1.22158 4 4 4 0 8 0 0 669.302 
923 4 0.950912 9.30612 3.76754 9.00236 0 0 0 -0.178187 -0.0299119 0.0375696 5 0 0 0 5 0 0 2.47064 
2272 8 1.00846 9.82569 5.4456 21.3652 0 0 0 -0.00224299 0.131574 2.01636 6 0 0 0 6 0 0 296.201 
2989 10 1.00746 9.87704 4.10709 29.7518 0 0 0 0 0 0 7 0 0 0 7 0.25 -1.16012e-06 0 
3078 9 -0.632211 10.1466 4.47611 32.1118 0 0 0 0 0 0 4 4 4 0 8 0.25 0 0 
1862 5 -0.554934 10.2392 5.0646 -1.25821 0 0 0 0 0 0 4 4 2 2 8 -0.249979 -1.03051e-07 0 
1420 3 -0.632282 10.6563 5.33592 8.36325 0 0 0 1.16534 -6.1038 4.29477 3 4 3 1 7 0 0 365.986 
1407 3 -0.602939 10.8292 4.5463 13.2614 0 0 0 2.48386 -0.373737 -1.91321 4 4 4 0 8 0 0 63.9464 
1852 5 -0.598701 11.3863 5.01751 -5.61017 0 0 0 0 0 0 4 3 3 0 7 -0.25 0 0 
15 1 -0.604223 11.8861 3.9316 1.53745 0 0 0 1.28707 -0.0975368 -0.759642 0 4 0 4 4 0 0 14.3876 
821 4 0.905132 11.3189 4.49025 6.64573 0 0 0 -0.195719 -0.479197 -0.915501 6 0 0 0 6 -0.0696347 -0.000220591 80.2397 
825 3 -0.620587 11.1584 5.1428 4.69044 0 0 0 -1.66637 -0.98975 3.19273 2 4 1 3 6 0 0 89.4764 
1052 3 -0.624278 11.4991 4.40862 16.1706 0 0 0 1.06388 2.22257 0.167856 4 4 4 0 8 0 0 39.125 
2248 9 -0.607685 11.6871 4.09995 19.538 0 0 0 -5.2086 -2.9502 0.422467 4 5 5 0 9 0.249584 1.32064e-06 230.983 
2062 5 -0.411434 12.8943 4.32967 -7.61057 0 0 0 0 0 0 2 2 2 0 4 -0.25 0 0 
1926 6 1.01514 12.1109 4.63887 -1.42118 0 0 0 0 0 0 6 1 1 0 7 -0.249974 -1.13915e-07 0 
84 2 0.759568 12.8853 4.558 3.6982 0 0 0 -0.381551 -1.3009 0.771559 6 0 0 0 6 0 0 174.117 
236 1 -0.610791 12.809 4.5089 11.1032 0 0 0 7.7343 -4.39996 3.35699 3 4 4 0 7 0 0 580.148 
3064 9 -0.588629 12.4745 3.70155 23.3078 0 0 0 3.55489 -0.34112 -3.81715 6 3 3 0 9 0.24979 7.45361e-07 175.261 
3068 9 -0.536237 12.2403 4.38525 28.2824 0 0 0 0 0 0 4 4 4 0 8 0.24999 -2.56056e-05 0 
3142 10 0.907081 12.1938 4.55638 31.9223 0 0 0 0 0 0 5 0 0 0 5 0.25 0 0 
914 3 -0.604397 13.5982 4.06707 14.2419 0 0 0 -0.513178 2.10411 2.41652 2 4 4 0 6 0 0 67.5421 
963 3 -0.546532 13.4356 5.42524 21.4186 0 0 0 3.39234 -2.31672 2.36415 5 4 4 0 9 0 0 144.089 
2918 9 -0.603252 13.0241 3.81505 30.3846 0 0 0 0 0 0 6 4 4 0 10 0.25 -5.48434e-07 0 
2762 10 0.851066 13.3123 4.38187 26.6371 0 0 0 -1.26513 -1.28069 -0.966913 6 0 0 0 6 0.249932 2.76394e-07 302.918 
1977 6 0.88951 14.7581 4.81967 -7.3243 0 0 0 0 0 0 5 0 0 0 5 -0.25 0 0 
1943 5 -0.647171 14.2369 4.43833 -1.32075 0 0 0 0 0 0 5 5 4 1 10 -0.249933 -1.62639e-07 0 
371 1 -0.610274 14.5668 4.37991 2.53373 0 0 0 1.3778 0.225668 1.10557 3 4 0 4 7 0 0 20.3427 
54 1 -0.629026 14.2654 5.42126 5.2647 0 0 0 -0.433802 -2.66813 4.88081 2 4 2 2 6 0 0 199.668 
779 4 0.912881 14.3902 5.40769 7.21371 0 0 0 -1.48546 0.324634 -0.271326 6 0 0 0 6 0 0 173.061 
1358 3 -0.616078 14.0908 5.43695 9.12565 0 0 0 2.9799 2.9082 3.54606 3 4 4 0 7 0 0 191.859 
2301 10 0.93328 14.1284 4.53292 23.7858 0 0 0 -0.151945 1.13538 -0.0685957 8 0 0 0 8 0.249827 6.82265e-07 95.5324 
2173 7 -0.431372 13.9184 4.15711 18.0245 0 0 0 2.76886 0.487718 -3.32001 6 3 3 0 9 0 0 121.4 
1495 6 1.01595 0.0800003 6.34961 -5.01221 0 0 0 0 0 0 7 0 0 0 7 -0.25 0 0 
1755 6 1.08462 0.384275 6.86601 -1.11789 0 0 0 0 0 0 6 0 0 0 6 -0.249936 -1.66848e-07 0 
250 1 -0.592564 0.0645529 6.48533 0.869639 0 0 0 1.25449 -2.86325 -6.3322 3 4 1 3 7 0 0 319.864 
1252 4 0.908007 0.839841 6.54845 9.12069 0 0 0 -2.35905 -0.124875 -1.76541 7 0 0 0 7 0 0 630.946 
2269 9 -0.632349 0.360273 6.54966 16.3202 0 0 0 -2.98299 -5.49153 2.23908 5 4 4 0 9 0.247346 3.31156e-05 282.662 
2764 9 -0.642547 0.237092 6.86054 31.0174 0 0 0 0 0 0 3 4 4 0 7 0.25 0 0 
1938 5 -0.427656 1.34365 5.56078 -6.82473 0 0 0 0 0 0 6 3 3 0 9 -0.25 0 0 
92 1 -0.584931 1.60246 6.02637 3.17386 0 0 0 4.6242 2.34584 -1.93837 1 5 0 5 6 0 0 196.551 
2198 7 -0.602015 1.39631 5.91861 21.241 1 0 0 0.708885 2.50607 0.7636 6 4 4 0 10 0 0 47.2463 
744 3 -0.661004 1.02278 5.83266 18.7326 0 0 0 4.04055 -6.1617 1.42963 5 4 4 0 9 0 0 361.349 
2846 9 -0.67498 1.24497 5.78534 25.8643 1 0 0 -3.19914 12.263 0.967504 2 5 5 0 7 0.249947 4.82488e-07 1036.21 
2794 9 -0.545881 1.79516 6.24236 33.0597 0 0 0 0 0 0 1 4 4 0 5 0.25 0 0 