ITEM: TIMESTEP
500000
ITEM: NUMBER OF ATOMS
3344
ITEM: BOX BOUNDS pp pp ff
0.0000000000000000e+00 2.9565597895300002e+01
0.0000000000000000e+00 2.9545719921200000e+01
-8.8921683279000003e+00 4.4289169250699999e+01
ITEM: ATOMS id type q x y z ix iy iz vx vy vz v_Ocoord v_Mcoord v_Tacoord v_Hfcoord c_ncoord[11] c_locpot[1] c_locpot[2] v_vtemp2 
1916 5 -0.654893 0.565397 1.81354 -5.14473 0 0 0 0 0 0 2 4 4 0 6 0 0 0 
2060 6 0.960036 0.439399 0.297219 -6.42671 0 0 0 0 0 0 6 0 0 0 6 0 0 0 
638 1 -0.634532 0.81582 1.43105 3.81686 1 0 0 3.13594 -4.50763 -4.80732 2 5 0 5 7 0 0 341.636 
446 2 0.699032 0.81233 0.892568 7.76648 0 0 0 0.326839 -0.350831 -0.760814 6 0 0 0 6 0 0 57.8721 
996 3 -0.60347 0.563184 1.01198 11.4982 0 0 0 -2.05021 -6.72777 6.69165 0 4 4 0 4 0 0 604.496 
2628 8 1.01374 0.257904 0.371385 18.2424 0 0 0 -1.07807 0.652664 0.964537 7 0 0 0 7 0 0 182.705 
845 3 -0.47078 0.800146 1.62837 21.7312 1 0 0 -0.311043 -3.46158 0.992663 6 4 4 0 10 0 0 83.7984 
3132 9 -0.50953 0.679753 1.42961 29.1746 0 0 0 0 0 0 2 3 3 0 5 0 0 0 
3180 9 -0.471096 0.428432 0.0735529 26.6877 1 1 0 7.08047 3.65279 -0.487415 3 3 3 0 6 0 0 408.667 
2583 9 -0.641532 1.27624 1.49795 14.3275 0 0 0 1.53314 -0.0692248 0.43351 6 4 4 0 10 0 0 16.3127 
3147 10 0.944883 1.4765 1.13908 24.9015 0 0 0 0.380317 -1.13505 -0.122593 7 0 0 0 7 0 0 105.045 
3260 9 -0.601129 1.31052 0.751809 31.9011 0 0 0 0 0 0 3 3 3 0 6 0 0 0 
1964 5 -0.55258 2.09889 0.635642 -7.3032 0 0 0 0 0 0 5 3 3 0 8 0 0 0 
1568 6 1.00367 2.40983 1.47782 -3.96776 0 0 0 0 0 0 6 0 0 0 6 0 0 0 
2094 6 0.89207 1.88086 1.48603 -0.680391 0 0 0 0 0 0 4 0 0 0 4 0 0 0 
92 1 -0.611177 2.70746 0.726409 1.95852 0 0 0 -3.27909 2.29198 -6.07417 3 3 0 3 6 0 0 339.315 
1308 4 0.856229 2.4841 0.205036 10.7145 0 0 0 -0.661644 0.0586195 0.370362 5 0 0 0 5 0 0 41.9579 
85 2 0.727596 2.58241 1.41748 5.18981 0 0 0 -0.23308 -0.0078348 0.556494 6 0 0 0 6 0 0 26.0524 
347 1 -0.676907 2.32454 1.59694 9.0971 0 0 0 0.996453 2.71827 4.81359 1 6 3 3 7 0 0 202.382 
1149 3 -0.579226 2.31004 1.41904 17.405 0 0 0 -0.30666 -2.00213 7.32066 5 4 4 0 9 0 0 370.06 
2580 8 1.00086 2.18838 0.303214 15.8546 0 0 0 -1.09627 0.200927 -0.689656 6 0 0 0 6 0 0 124.617 
2784 10 0.989935 2.12342 0.27928 30.1509 0 0 0 0 0 0 7 0 0 0 7 0 0 0 
2158 9 -0.473184 3.17217 1.80806 23.728 0 0 0 2.77151 2.32121 1.54405 4 4 4 0 8 0 0 99.1198 
2433 7 -0.625607 3.44709 1.44618 21.1918 0 1 0 -4.13497 5.31352 2.45986 3 4 4 0 7 0 0 329.573 
2470 10 1.0302 3.18275 1.5703 19.2355 0 0 0 1.01686 0.440881 -1.65969 6 0 0 0 6 0 0 288.939 
3315 9 -0.54386 3.1236 0.731628 28.4883 0 0 0 0 0 0 6 4 4 0 10 0 0 0 
3061 9 -0.489614 3.45108 0.783091 33.7918 0 0 0 0 0 0 2 2 2 0 4 0 0 0 
2042 5 -0.610639 3.88143 0.542646 -5.37079 0 0 0 0 0 0 6 4 4 0 10 0 0 0 
1505 6 1.02854 3.73506 1.79056 -6.98584 0 0 0 0 0 0 6 0 0 0 6 0 0 0 
1747 5 -0.575663 4.24191 1.20972 -2.94474 0 0 0 0 0 0 5 3 3 0 8 0 0 0 
685 2 0.711777 4.59079 1.20541 2.40521 0 0 0 0.0122774 -0.210816 -1.79221 5 1 0 1 6 0 0 233.038 
568 2 0.719458 3.93591 0.893528 7.90055 0 0 0 0.678731 1.42678 0.988977 6 0 0 0 6 0 0 248.626 
305 1 -0.670112 4.00036 0.130906 4.41002 0 0 0 -4.7131 3.29207 0.228183 2 5 0 5 7 0 0 212.327 
1128 4 0.9911 4.25196 0.145504 13.5471 0 1 0 -0.377023 -0.84972 -1.4203 6 0 0 0 6 0 0 209.031 
1212 3 -0.59256 3.94221 0.972234 15.3904 0 0 0 3.66451 -4.86204 -2.19905 3 3 3 0 6 0 0 268.777 
80 1 -0.64921 3.76555 1.27325 11.985 0 0 0 -1.1379 -0.145533 3.98301 3 5 4 1 8 0 0 110.197 
3053 9 -0.42995 3.87978 0.256302 26.0179 0 0 0 -1.17443 -5.54652 -2.65121 5 3 3 0 8 0 0 251.255 
3319 9 -0.627553 3.97762 0.122441 31.2829 0 0 0 0 0 0 5 5 5 0 10 0 0 0 
3048 10 0.904151 4.18657 1.84405 32.4339 0 0 0 0 0 0 7 0 0 0 7 0 0 0 
1444 5 -0.415818 4.98526 0.995303 -8.33165 0 0 0 0 0 0 2 2 2 0 4 0 0 0 
53 2 0.70374 5.54059 0.447288 10.576 0 0 0 -0.964951 -0.602116 2.12123 6 0 0 0 6 0 0 414.558 
2462 8 1.01349 5.43829 0.845979 16.5409 0 0 0 0.827454 -0.600806 1.34702 6 0 0 0 6 0 0 207.484 
2452 10 0.996289 5.22208 1.44791 22.258 0 0 0 -0.0782532 0.640777 0.208413 6 0 0 0 6 0 0 33.3816 
2640 7 -0.642017 4.94222 0.828214 18.7905 0 0 0 7.70427 2.28389 3.63315 6 0 0 0 6 0 0 498.838 
1765 6 1.01288 5.6873 1.27875 -4.40744 0 0 0 0 0 0 7 0 0 0 7 0 0 0 
419 2 0.719252 5.95468 0.826827 5.18666 0 0 0 0.0841901 0.987673 0.707475 5 0 0 0 5 0 0 106.128 
338 1 -0.632804 5.85193 0.097988 7.37319 0 1 0 -2.84239 -2.54936 1.08285 4 4 1 3 8 0 0 101.029 
771 3 -0.581395 6.06264 0.766797 13.8972 0 0 0 6.95527 2.97847 0.943714 6 4 4 0 10 0 0 372.902 
2510 9 -0.545324 5.69364 0.542008 23.8454 0 0 0 -7.59045 0.207042 3.01823 6 3 3 0 9 0 0 428.255 
2981 10 1.05244 5.56077 0.658066 29.5097 0 0 0 0 0 0 7 0 0 0 7 0 0 0 
2871 9 -0.474947 6.215 0.614961 32.9195 0 0 0 0 0 0 2 3 3 0 5 0 0 0 
1655 5 -0.54959 6.71174 0.832704 -1.31394 0 0 0 0 0 0 3 4 3 1 7 0 0 0 
3013 10 0.99522 7.17997 1.28315 25.0653 0 0 0 -1.5817 -0.91258 1.70675 6 0 0 0 6 0 0 453.225 
1457 5 -0.444997 7.63017 1.51366 -7.75955 0 0 0 0 0 0 4 2 2 0 6 0 0 0 
1720 5 -0.598869 7.72777 1.64954 -4.36983 0 0 0 0 0 0 4 4 4 0 8 0 0 0 
490 2 0.742292 7.61054 0.722728 7.93978 0 0 0 0.617786 0.127226 0.753714 6 0 0 0 6 0 0 69.1202 
752 4 1.02356 7.85636 0.162183 14.4266 0 1 0 -0.867332 -0.385674 -2.2375 6 0 0 0 6 0 0 428.55 
1168 3 -0.665038 7.421 0.852256 16.3202 0 0 0 6.22463 8.42237 -2.89403 5 4 4 0 9 0 0 757.237 
1016 3 -0.637538 7.91854 0.70631 19.1787 0 1 0 -5.30563 -0.389215 -2.25716 5 4 4 0 9 0 0 214.206 
3091 9 -0.524135 7.83876 0.749572 28.4887 0 0 0 0 0 0 5 4 4 0 9 0 0 0 
1875 5 -0.608712 9.10952 0.014567 -6.25204 0 0 0 0 0 0 5 3 3 0 8 0 0 0 
2008 6 0.92344 8.91277 1.19651 -0.834599 0 0 0 0 0 0 5 0 0 0 5 0 0 0 
512 1 -0.67386 9.08246 1.30894 3.69538 0 1 0 -3.6178 2.49176 5.37683 0 4 1 3 4 0 0 309.21 
616 1 -0.578613 8.67337 0.00649077 6.20062 0 0 0 1.89082 2.11957 -3.84268 1 4 1 3 5 0 0 146.46 
1061 4 1.02207 8.57983 0.924842 11.2422 0 0 0 -1.1105 -2.47661 -0.410967 7 0 0 0 7 0 0 546.672 
1194 3 -0.519701 8.87293 1.51388 13.5981 0 0 0 2.18175 -5.13675 1.5261 4 3 3 0 7 0 0 214.715 
2673 9 -0.635144 9.01395 0.960264 25.9738 0 0 0 1.25702 -0.742646 -1.91475 6 4 4 0 10 0 0 37.1883 
3199 10 0.998789 9.05238 0.700276 30.1712 0 0 0 0 0 0 6 0 0 0 6 0 0 0 
2936 9 -0.661217 8.41326 1.46339 31.7808 0 0 0 0 0 0 1 4 1 3 5 0 0 0 
1486 5 -0.641481 9.27255 0.356614 -2.53512 0 0 0 0 0 0 5 4 4 0 9 0 0 0 
396 1 -0.670909 9.70458 1.42422 0.857766 0 0 0 -2.03347 -3.80571 6.55844 1 4 1 3 5 0 0 395.313 
1171 3 -0.612941 9.42365 0.444779 8.85092 0 1 0 1.19222 2.75966 1.43565 5 5 3 2 10 0 0 71.1852 
2184 9 -0.573602 9.88068 0.626817 21.0334 0 0 0 -3.56693 -2.62373 0.0656739 1 3 3 0 4 0 0 125.789 
2702 9 -0.479937 9.94437 0.268895 33.4083 0 0 0 0 0 0 3 3 3 0 6 0 0 0 
1675 5 -0.40443 10.3041 0.804316 -8.66604 0 0 0 0 0 0 3 2 2 0 5 0 0 0 
1781 5 -0.600098 10.6491 1.72359 -4.86992 0 0 0 0 0 0 6 4 4 0 10 0 0 0 
33 2 0.684422 11.0195 1.33553 3.40351 0 0 0 0.60751 -0.425723 -0.457242 5 0 0 0 5 0 0 54.3396 
43 2 0.688517 10.4108 0.990918 6.38491 0 0 0 0.0284868 -1.27865 -0.689975 5 0 0 0 5 0 0 151.118 
971 3 -0.544434 10.4778 0.551933 11.4509 0 0 0 -2.81064 -0.377035 0.77727 2 3 3 0 5 0 0 55.4566 
948 4 1.03632 10.7256 1.54646 15.7601 0 0 0 -0.691061 -0.995792 0.0392792 6 0 0 0 6 0 0 106.692 
2135 7 -0.490867 11.0174 0.620221 24.3323 0 0 0 3.34928 0.0966264 3.23451 6 3 3 0 9 0 0 139.116 
1952 6 1.01935 11.9793 0.109213 -5.38418 0 0 0 0 0 0 6 0 0 0 6 0 0 0 
1685 5 -0.633513 11.7952 0.419201 -2.06125 0 0 0 0 0 0 6 4 3 1 10 0 0 0 
1279 4 0.9413 11.1832 0.926848 9.50465 0 0 0 0.562779 2.24031 2.22014 6 0 0 0 6 0 0 744.646 
227 1 -0.635621 11.9317 0.355271 5.01718 0 1 0 6.52875 0.863774 -2.36474 2 5 2 3 7 0 0 314.053 
525 1 -0.680884 11.9349 0.907455 7.75275 0 0 0 -3.60373 -1.36295 -3.1922 5 4 3 1 9 0 0 160.575 
1036 3 -0.510627 11.9416 1.42483 14.1372 0 0 0 -4.92274 -4.05011 10.4862 1 3 3 0 4 0 0 965.953 
1618 5 -0.61581 12.423 1.59185 -6.77081 0 0 0 0 0 0 5 3 3 0 8 0 0 0 
1589 6 0.806809 12.128 0.884716 -8.43919 0 0 0 0 0 0 3 0 0 0 3 0 0 0 
135 2 0.709657 12.4905 0.936139 -0.271834 0 0 0 0 0 0 5 0 0 0 5 0 0 0 
619 1 -0.61878 12.2706 1.37125 1.78059 0 0 0 0.518163 -2.46035 2.57892 2 5 0 5 7 0 0 83.2079 
1415 3 -0.477057 12.2275 1.58494 17.0472 0 1 0 -0.740907 -3.19845 -0.768388 6 3 3 0 9 0 0 72.9249 
1239 3 -0.512973 12.6474 1.76009 21.7895 0 0 0 -3.28947 -3.58901 0.892409 4 4 4 0 8 0 0 157.133 
2834 9 -0.606758 12.1845 1.70856 26.4833 0 0 0 3.88122 -2.71167 -3.55284 4 4 4 0 8 0 0 224.749 
3329 10 1.02632 12.4159 1.62106 31.2252 0 0 0 0 0 0 6 0 0 0 6 0 0 0 
1725 5 -0.610882 13.522 1.03746 -3.95826 0 0 0 0 0 0 4 4 4 0 8 0 0 0 
741 4 0.902435 13.8143 1.62549 4.45385 0 0 0 1.12509 1.13668 -0.690844 5 0 0 0 5 0 0 220.181 
349 1 -0.611264 13.6454 0.198347 12.2274 0 1 0 0.753705 -1.01138 -2.99587 4 4 4 0 8 0 0 67.7731 
2556 9 -0.576546 13.1198 0.316998 19.3773 0 1 0 5.19595 -1.04206 6.2102 4 4 4 0 8 0 0 427.504 
2972 9 -0.609257 13.274 1.34725 29.3302 0 0 0 0 0 0 5 4 4 0 9 0 0 0 
1478 5 -0.619509 14.6219 0.32326 -7.01123 0 0 0 0 0 0 4 3 3 0 7 0 0 0 
236 1 -0.622689 14.5726 1.47004 8.58798 0 0 0 -2.02643 -1.49852 -2.8819 0 5 5 0 5 0 0 94.0139 
897 4 0.943945 14.1995 0.191854 10.1453 0 0 0 1.15136 -0.801725 0.0803033 6 0 0 0 6 0 0 143.263 
527 1 -0.681888 14.7498 0.478676 5.83165 0 0 0 3.50056 -4.71383 8.42755 0 4 3 1 4 0 0 676.675 
1317 3 -0.538896 14.4279 0.493075 14.7634 0 0 0 -1.35044 -2.20537 4.15901 5 4 4 0 9 0 0 153.841 
2347 10 0.985554 14.1452 0.978414 22.9805 0 0 0 -0.832297 -0.841325 1.36606 7 0 0 0 7 0 0 236.978 
2694 9 -0.61587 14.4351 0.176599 27.0455 0 0 0 1.93765 2.79393 3.77827 6 4 4 0 10 0 0 165.715 
2852 9 -0.593507 13.9417 0.691476 31.8906 0 0 0 0 0 0 4 3 3 0 7 0 0 0 
864 4 0.909698 0.812047 2.81061 10.1187 0 0 0 -0.752314 0.728502 -1.23236 6 0 0 0 6 0 0 189.733 
2558 9 -0.480786 0.190972 2.20663 19.149 0 0 0 -2.30528 -0.499748 1.90706 7 4 4 0 11 0 0 59.016 
2995 10 0.95887 0.25114 2.04467 27.434 0 0 0 -0.828032 1.49565 1.68251 5 0 0 0 5 0 0 417.38 
2044 5 -0.629099 1.37469 2.08479 -2.3641 0 0 0 0 0 0 2 3 3 0 5 0 0 0 
1779 6 1.03668 0.93901 3.49828 -6.2669 0 0 0 0 0 0 6 0 0 0 6 0 0 0 
516 1 -0.674168 1.14288 2.39842 6.4647 0 0 0 -6.65145 5.3213 9.77453 0 6 1 5 6 0 0 1078.21 
2134 8 1.01603 1.51437 3.52246 17.098 0 0 0 0.581419 1.67274 -0.121145 7 0 0 0 7 0 0 228.571 
2217 9 -0.601396 0.934771 3.01093 24.0784 0 0 0 -0.0142176 3.84245 -5.22144 6 4 4 0 10 0 0 269.573 
3238 10 1.01084 1.392 2.77277 31.8487 0 0 0 0 0 0 5 0 0 0 5 0 0 0 
1452 5 -0.414238 2.28651 3.14292 -7.53225 0 0 0 0 0 0 5 2 2 0 7 0 0 0 
634 2 0.684856 1.86168 2.47418 2.25137 0 0 0 1.86098 0.976076 -0.226541 5 0 0 0 5 0 0 319.67 
550 2 0.669324 2.42771 3.67975 7.6024 0 0 0 1.09426 1.50708 -0.574471 6 0 0 0 6 0 0 271.827 
440 1 -0.601459 2.27517 3.42733 11.2458 0 0 0 -3.10595 -3.23831 8.21713 1 4 4 0 5 0 0 562.228 
1318 4 0.969153 2.35954 2.65548 13.1493 0 0 0 -0.42934 0.64685 0.920747 6 0 0 0 6 0 0 105.227 
2323 10 1.01838 2.2595 3.0924 22.4732 0 0 0 -0.113084 0.528575 0.435218 7 0 0 0 7 0 0 34.9369 
2194 9 -0.568811 2.38059 3.65901 18.8844 0 0 0 -3.67408 -4.32457 3.19102 5 4 4 0 9 0 0 271.852 
2668 9 -0.658495 2.0211 2.30841 26.2947 0 0 0 -2.87536 -1.45764 0.673758 5 0 0 0 5 0 0 69.5699 
3069 9 -0.587774 2.68933 3.28581 33.1228 0 0 0 0 0 0 5 4 4 0 9 0 0 0 
2099 5 -0.525243 3.07432 3.05338 -4.85298 0 0 0 0 0 0 5 4 4 0 9 0 0 0 
123 1 -0.613278 2.83997 3.22389 4.27232 0 0 0 3.77168 -4.83692 -1.26374 4 5 0 5 9 0 0 251.552 
289 1 -0.654887 3.45429 3.68801 1.51234 0 0 0 -0.997655 -1.37136 -6.63164 2 4 1 3 6 0 0 300.531 
2963 9 -0.60096 2.93678 2.49625 30.6363 0 0 0 0 0 0 6 4 4 0 10 0 0 0 
1845 5 -0.576851 3.70901 2.63933 -0.891994 0 0 0 0 0 0 3 3 3 0 6 0 0 0 
374 1 -0.609823 4.08105 2.74065 6.64448 0 0 0 0.440585 2.13632 0.65824 1 5 0 5 6 0 0 33.2973 
801 4 0.9635 3.99988 3.21522 10.3305 0 0 0 1.12022 1.21999 0.129946 6 0 0 0 6 0 0 200.233 
537 1 -0.555157 4.3984 3.29603 13.8552 0 0 0 -0.956108 5.95732 -2.56312 3 3 3 0 6 0 0 275.637 
3323 10 1.08459 3.88221 2.16498 26.9488 0 0 0 1.52202 -2.12647 1.41168 7 0 0 0 7 0 0 640.658 
1864 5 -0.569463 5.46951 2.51635 -6.02753 0 0 0 0 0 0 3 3 3 0 6 0 0 0 
364 1 -0.651162 5.03171 1.97418 9.28275 0 0 0 2.60936 0.824894 0.714394 2 4 1 3 6 0 0 51.3104 
2400 9 -0.516933 5.42459 3.20741 23.1169 0 0 0 1.41172 4.36105 -13.5807 5 3 3 0 8 0 0 1317.77 
2226 9 -0.59986 4.94475 3.22858 19.8326 0 0 0 5.00115 -6.01727 2.21908 6 4 4 0 10 0 0 424.252 
3080 9 -0.663718 5.29801 2.0116 28.2446 0 0 0 0 0 0 5 4 4 0 9 0 0 0 
1734 5 -0.618746 5.89902 3.08647 -2.87765 0 0 0 0 0 0 4 4 4 0 8 0 0 0 
1832 6 0.841175 5.70544 2.515 -0.833516 0 0 0 0 0 0 5 0 0 0 5 0 0 0 
510 1 -0.596649 5.75244 2.28845 3.72487 0 0 0 -6.02422 -0.682404 -7.32741 1 4 0 4 5 0 0 580.144 
462 1 -0.669698 6.36548 1.88842 1.19188 0 0 0 2.22185 0.363282 1.97345 3 5 1 4 8 0 0 57.4905 
566 2 0.722004 5.818 3.26592 7.756 0 0 0 -0.0328417 -0.882271 0.925631 6 0 0 0 6 0 0 117.089 
1382 3 -0.538919 6.00836 2.64578 17.2479 0 0 0 1.67313 3.08457 -0.158393 5 4 4 0 9 0 0 79.1443 
1134 4 0.994545 6.00799 2.78573 13.091 0 0 0 0.216701 1.12351 -2.70456 6 0 0 0 6 0 0 625.612 
2950 9 -0.638599 5.59395 2.20411 30.6577 0 0 0 0 0 0 6 4 4 0 10 0 0 0 
2891 9 -0.546007 5.75651 2.29589 25.8212 0 1 0 1.55429 4.54907 -3.83928 5 4 4 0 9 0 0 242.774 
556 1 -0.615536 6.9379 2.28771 6.3153 0 0 0 -6.9277 0.822795 -2.50313 2 4 1 3 6 0 0 352.364 
1395 3 -0.592158 7.00583 3.28858 14.6221 0 0 0 4.20431 8.56435 4.62401 6 4 4 0 10 0 0 720.985 
65 1 -0.624836 6.85363 1.86996 11.4577 0 0 0 0.233476 -0.282903 -4.13867 3 4 3 1 7 0 0 110.728 
1240 3 -0.482689 6.98166 2.33781 21.1867 0 0 0 -0.550214 -5.29851 1.60288 7 4 4 0 11 0 0 198.493 
2412 8 0.97805 6.49951 2.18862 19.2704 0 0 0 0.854937 0.171371 -1.09694 6 0 0 0 6 0 0 142.446 
3233 10 1.03226 6.82113 3.01238 28.1605 0 0 0 0 0 0 7 0 0 0 7 0 0 0 
3054 10 1.02667 7.10018 3.0552 31.6644 0 0 0 0 0 0 6 0 0 0 6 0 0 0 
1838 6 1.0373 7.7682 3.45886 -3.31166 0 0 0 0 0 0 7 0 0 0 7 0 0 0 
582 2 0.652394 8.09547 2.28984 2.16797 0 0 0 -0.16096 -0.668145 -1.33925 5 0 0 0 5 0 0 162.144 
639 1 -0.588378 7.85809 2.59001 8.89743 0 0 0 3.69273 -0.276912 -3.37688 3 4 2 2 7 0 0 161.099 
2559 8 1.04229 7.9667 2.91615 16.4739 0 0 0 -0.650295 1.54053 0.481331 7 0 0 0 7 0 0 219.648 
735 3 -0.521526 8.04439 3.53031 18.6747 0 0 0 0.608073 1.17213 -0.636928 4 4 4 0 8 0 0 13.786 
2619 9 -0.516969 8.28131 2.00803 23.6206 0 0 0 1.56356 0.0969218 -2.57596 5 3 3 0 8 0 0 58.3024 
3014 9 -0.555597 8.11017 2.98742 29.829 0 0 0 0 0 0 8 4 4 0 12 0 0 0 
3302 9 -0.48924 8.07883 3.20277 26.8339 0 0 0 -1.67366 -5.07745 3.22776 6 3 3 0 9 0 0 250.151 
3088 9 -0.433811 8.11583 3.33314 33.409 0 0 0 0 0 0 3 2 2 0 5 0 0 0 
1797 6 0.995924 8.90005 1.96386 -6.22444 0 0 0 0 0 0 6 0 0 0 6 0 0 0 
1872 5 -0.674686 8.83065 2.81271 -1.73961 0 0 0 0 0 0 3 4 3 1 7 0 0 0 
1069 4 0.861401 8.38773 2.64571 4.9433 0 0 0 1.5438 1.92806 0.827069 4 0 0 0 4 0 0 492.198 
255 1 -0.629526 9.20769 2.91317 11.4271 0 0 0 2.17317 -1.06103 1.49694 5 4 4 0 9 0 0 51.8856 
524 1 -0.68714 10.0264 2.87635 6.18965 0 0 0 1.86614 1.51523 -1.34097 1 4 3 1 5 0 0 48.5971 
923 4 0.91496 9.37042 3.63146 8.07863 0 0 0 0.872815 -1.15347 -0.774378 5 0 0 0 5 0 0 195.287 
1021 3 -0.620921 9.62282 3.24994 15.2705 0 0 0 4.18493 3.41745 6.58447 6 4 4 0 10 0 0 465.331 
981 3 -0.601352 9.56854 1.93533 17.3879 0 1 0 4.27537 5.65535 3.16297 6 4 4 0 10 0 0 386.555 
1304 4 0.969658 9.30021 3.59523 13.3575 0 0 0 -1.43398 -1.00784 0.396485 7 0 0 0 7 0 0 234.263 
2204 7 -0.5582 9.45065 3.42558 21.0066 0 0 0 7.14282 2.92148 1.23753 6 4 4 0 10 0 0 391.816 
2613 8 0.982556 9.76811 1.91897 19.3342 0 0 0 -0.62235 -0.379509 1.16538 7 0 0 0 7 0 0 137.07 
2868 10 0.895429 9.90174 2.54585 32.8441 0 0 0 0 0 0 6 0 0 0 6 0 0 0 
1603 5 -0.526828 10.1944 3.06867 -7.24986 0 0 0 0 0 0 5 3 3 0 8 0 0 0 
1652 6 0.98272 10.6696 2.18305 -2.91236 0 0 0 0 0 0 7 0 0 0 7 0 0 0 
155 1 -0.647879 10.961 3.07232 8.99538 0 0 0 -2.40609 4.00013 -7.43916 2 4 4 0 6 0 0 494.731 
1093 4 0.953688 11.0505 3.56853 10.9761 0 0 0 -0.423866 -0.348417 -0.763223 5 0 0 0 5 0 0 64.0977 
951 3 -0.444312 10.68 3.15087 23.3146 0 0 0 -0.361489 0.385633 5.09185 6 4 4 0 10 0 0 168.091 
2819 9 -0.424934 10.2976 2.99634 28.0976 0 0 0 0 0 0 6 2 2 0 8 0 0 0 
2142 10 1.02748 10.3028 2.26111 25.376 0 0 0 0.35476 -1.4184 -0.0105891 6 0 0 0 6 0 0 155.088 
2815 9 -0.595526 10.706 2.29401 30.5643 0 0 0 0 0 0 7 4 4 0 11 0 0 0 
1667 5 -0.653669 11.6086 2.8155 -1.15167 0 0 0 0 0 0 4 5 3 2 9 0 0 0 
539 2 0.705157 11.2472 3.13408 1.07036 0 0 0 -0.415214 -1.30435 1.14298 6 0 0 0 6 0 0 227.564 
56 1 -0.59649 11.2526 3.44171 3.77468 0 0 0 -1.68304 -2.92697 -0.380882 1 5 1 4 6 0 0 74.0502 
2173 7 -0.599221 11.6611 2.7723 19.4984 0 0 0 1.31289 0.0238727 -1.17199 4 4 4 0 8 0 0 19.8698 
2883 9 -0.52666 11.9946 2.65871 32.8145 0 0 0 0 0 0 2 3 3 0 5 0 0 0 
1525 6 1.05435 12.1252 3.21352 -5.83563 0 0 0 0 0 0 7 0 0 0 7 0 0 0 
1756 5 -0.5341 12.2994 3.39059 -3.64621 0 0 0 0 0 0 7 4 4 0 11 0 0 0 
899 3 -0.564945 12.508 1.99009 10.7275 0 0 0 -0.500007 1.52715 0.990648 4 5 5 0 9 0 0 22.8573 
2762 10 1.01511 12.1977 2.52365 28.2028 0 0 0 0.276668 -1.33859 -0.531017 6 0 0 0 6 0 0 155.995 
2113 6 0.968002 13.6805 2.55281 -2.42422 0 0 0 0 0 0 6 1 1 0 7 0 0 0 
562 1 -0.60835 13.0495 2.80989 6.1539 0 0 0 -0.362239 0.844016 -1.04514 1 4 4 0 5 0 0 12.4171 
1273 4 0.889525 13.0056 2.78479 8.25053 0 0 0 0.113153 1.84395 -0.442247 6 0 0 0 6 0 0 261.779 
1222 4 0.973666 13.4342 2.19008 12.7062 0 0 0 1.97679 0.285963 0.995644 6 0 0 0 6 0 0 361.327 
2591 10 0.992285 13.6684 2.02521 19.9591 0 0 0 -0.974995 1.57 0.233985 6 0 0 0 6 0 0 251.748 
3278 9 -0.495472 13.4025 2.49257 24.3154 0 0 0 -2.78233 -0.345489 -0.579604 4 3 3 0 7 0 0 52.5745 
1778 5 -0.579813 14.263 3.27485 -5.59741 0 0 0 0 0 0 5 4 4 0 9 0 0 0 
1636 5 -0.633882 14.0157 2.09047 -0.574057 0 0 0 0 0 0 3 4 1 3 7 0 0 0 
148 2 0.731828 14.3449 2.61199 1.67366 0 0 0 -1.28965 -0.751269 0.76574 6 0 0 0 6 0 0 201.361 
371 1 -0.667479 14.6113 3.40715 3.63378 0 0 0 0.581372 6.72043 -5.958 1 5 2 3 6 0 0 519.544 
209 1 -0.549766 14.5634 3.46593 10.6898 0 0 0 -2.09175 -3.38432 4.16617 4 4 4 0 8 0 0 212.859 
731 3 -0.496021 14.6866 3.25811 15.6211 0 0 0 4.13208 -2.22356 -1.71969 3 3 3 0 6 0 0 160.196 
998 3 -0.573369 14.1326 3.01887 18.4476 0 0 0 3.91636 1.61027 0.151501 6 3 3 0 9 0 0 115.158 
2994 9 -0.466847 14.5293 3.14471 28.0358 0 0 0 0 0 0 4 3 3 0 7 0 0 0 
2129 10 0.981279 14.463 2.0407 26.3716 0 0 0 -1.6037 -1.054 0.184407 7 0 0 0 7 0 0 269.632 
1436 5 -0.568022 0.626464 4.5211 -4.58297 0 0 0 0 0 0 6 3 3 0 9 0 0 0 
2022 6 1.04283 0.891188 4.04809 -2.78442 0 0 0 0 0 0 6 0 0 0 6 0 0 0 
224 1 -0.695966 0.848561 4.16679 2.7514 1 0 0 -5.20031 0.884718 -2.04884 2 6 0 6 8 0 0 205.404 
399 2 0.593316 0.00621514 5.12661 0.942541 1 0 0 -1.3013 -1.17557 -2.03047 5 2 1 1 7 0 0 515.086 
121 1 -0.648139 0.560823 4.49539 8.49249 0 0 0 -1.6935 -2.5146 -3.67976 0 5 4 1 5 0 0 145.804 
1208 4 1.02902 0.447704 5.2636 14.4443 1 0 0 0.0218693 0.0831245 -1.63896 6 0 0 0 6 0 0 195.404 
2269 9 -0.654019 0.820007 5.31555 16.5284 0 0 0 -0.508993 -2.27752 0.158796 5 4 4 0 9 0 0 35.0942 
1219 3 -0.47596 0.157561 3.74191 13.1437 0 0 0 3.51953 -7.09214 2.39146 5 4 4 0 9 0 0 438.756 
2383 9 -0.663362 0.85162 4.31082 21.3451 0 0 0 -3.04055 1.33457 -6.1411 5 4 4 0 9 0 0 312.619 
3154 9 -0.449907 0.680911 4.08775 28.1362 0 0 0 0 0 0 4 3 3 0 7 0 0 0 
1853 5 -0.674738 0.966139 4.67692 -0.752145 0 0 0 0 0 0 1 5 4 1 6 0 0 0 
518 2 0.711193 1.22382 4.10496 4.86396 0 0 0 1.61656 0.771053 -0.348633 5 1 0 1 6 0 0 238.241 
2652 9 -0.594551 1.14889 4.39909 30.766 0 0 0 0 0 0 4 3 3 0 7 0 0 0 
3116 10 0.98664 1.768 4.35603 25.6027 0 0 0 0.170123 -0.20681 -0.800889 7 0 0 0 7 0 0 51.7339 
1917 5 -0.583048 2.67877 4.5683 -2.74178 0 0 0 0 0 0 5 3 3 0 8 0 0 0 
25 1 -0.628615 2.40001 5.24526 6.14699 0 0 0 0.8819 -6.29023 -5.63185 1 5 2 3 6 0 0 462.218 
970 3 -0.582085 2.0607 4.14343 14.5807 0 0 0 -1.6391 -0.751623 -5.2515 5 4 4 0 9 0 0 197.746 
2498 9 -0.562958 2.23001 5.0875 23.7872 0 0 0 2.61586 -7.51714 -2.93387 5 4 4 0 9 0 0 461.546 
2505 10 0.946963 2.09433 5.2073 20.1862 0 0 0 0.148469 1.32061 0.235499 6 0 0 0 6 0 0 132.14 
1885 6 0.968701 3.03601 4.47604 -0.708394 0 0 0 0 0 0 6 0 0 0 6 0 0 0 
636 2 0.71443 2.85494 5.26189 2.44842 0 0 0 -0.269196 0.926069 -0.825368 6 0 0 0 6 0 0 115.302 
29 1 -0.648107 3.365 4.85646 9.02888 0 0 0 0.899559 0.158521 0.349843 1 4 3 1 5 0 0 6.13656 
1030 3 -0.535717 3.51845 3.73045 16.6268 0 0 0 -3.83383 0.508575 -1.79117 5 3 3 0 8 0 0 116.514 
2578 9 -0.606572 3.52092 4.35561 21.6757 0 0 0 -8.08353 -4.65673 -0.487764 5 4 4 0 9 0 0 559.739 
2890 9 -0.522602 3.44641 3.78611 28.1849 0 0 0 0 0 0 6 3 3 0 9 0 0 0 
3101 10 0.850836 3.40644 5.05533 33.1662 0 0 0 0 0 0 5 1 1 0 6 0 0 0 
2086 5 -0.396116 4.53391 4.43896 -7.54119 0 0 0 0 0 0 4 2 2 0 6 0 0 0 
2009 6 1.01727 4.36431 4.35498 -3.63585 0 0 0 0 0 0 6 0 0 0 6 0 0 0 
1305 4 1.0393 3.82027 4.89033 15.0271 0 0 0 -0.0453259 1.43361 -1.24629 6 0 0 0 6 0 0 261.924 
1181 4 0.989861 4.58238 4.59428 18.1139 0 0 0 1.03954 -0.0935246 -1.06435 7 0 0 0 7 0 0 161.211 
2200 10 0.973807 4.20174 5.49444 27.3526 0 0 0 -0.878737 0.25437 -0.6829 7 0 0 0 7 0 0 94.5422 
3225 10 1.05185 4.18042 3.77198 30.0868 0 0 0 0 0 0 6 0 0 0 6 0 0 0 
2736 9 -0.58114 3.88342 4.2233 25.7149 0 0 0 -0.131863 3.6845 -0.352694 6 4 4 0 10 0 0 87.9846 
3133 9 -0.6444 3.86249 5.29362 31.1761 0 0 0 0 0 0 4 4 4 0 8 0 0 0 
1969 5 -0.625604 4.68733 5.20631 -1.40005 0 0 0 0 0 0 3 4 4 0 7 0 0 0 
390 2 0.637826 5.40548 3.8046 1.87294 0 0 0 0.519453 1.22894 -1.4671 5 1 0 1 6 0 0 281.402 
620 1 -0.664997 4.6842 5.36188 3.41766 0 0 0 5.83281 1.0814 -0.758484 1 5 0 5 6 0 0 229.41 
14 2 0.735419 4.70983 3.88383 4.88307 0 0 0 2.08742 -0.71098 0.583384 5 0 0 0 5 0 0 372.327 
648 1 -0.610887 5.46974 5.27725 6.16287 0 0 0 -5.35198 -1.4724 6.44487 0 5 1 4 5 0 0 464.05 
765 3 -0.617159 5.34084 4.10298 11.3999 0 0 0 -0.524441 -1.92798 3.316 4 4 4 0 8 0 0 96.1347 
2195 8 1.00816 5.40787 4.59501 21.2775 0 0 0 0.0292562 1.39924 -1.60541 8 0 0 0 8 0 0 329.067 
3185 9 -0.564684 5.53122 3.87318 32.6633 0 0 0 0 0 0 3 4 4 0 7 0 0 0 
2017 6 1.03624 6.32159 4.15256 -6.56845 0 0 0 0 0 0 6 0 0 0 6 0 0 0 
1808 5 -0.626117 6.00788 4.95436 -4.65949 0 0 0 0 0 0 4 4 4 0 8 0 0 0 
225 1 -0.610267 6.08549 4.7436 8.97444 0 0 0 -1.68936 -0.450594 -3.77062 4 4 3 1 8 0 0 110.801 
1043 3 -0.529316 5.66113 5.24082 16.542 0 0 0 4.1983 2.33281 2.70361 7 4 4 0 11 0 0 194.843 
1104 3 -0.53634 6.21175 5.47177 19.1989 0 0 0 3.7569 5.81976 4.7298 5 5 5 0 10 0 0 451.265 
2691 9 -0.524318 6.34539 5.0928 26.7167 0 0 0 4.17513 5.08266 3.93345 6 4 4 0 10 0 0 376.748 
3024 9 -0.590339 5.81725 4.42762 29.2591 0 0 0 0 0 0 7 4 4 0 11 0 0 0 
2721 10 1.04912 5.73469 4.21028 24.8662 0 0 0 1.03305 -0.272744 -0.35033 6 0 0 0 6 0 0 91.7192 
1515 5 -0.401646 7.06813 3.90054 -8.71083 0 0 0 0 0 0 2 2 2 0 4 0 0 0 
1716 6 0.925949 6.55301 5.52071 -1.14157 0 0 0 0 0 0 5 1 0 1 6 0 0 0 
184 1 -0.717803 6.76041 4.53154 0.619117 0 0 0 0.120626 8.15587 -0.435551 1 5 2 3 6 0 0 427.967 
1313 4 0.937669 7.37078 3.7923 10.5365 0 0 0 -0.0627683 1.78307 0.0410161 7 0 0 0 7 0 0 231.051 
784 4 0.905351 7.05449 5.38396 14.527 0 0 0 -0.779259 -1.1024 0.330161 7 0 0 0 7 0 0 140.122 
1370 3 -0.629736 7.22491 4.92978 21.7821 0 0 0 -1.56002 -3.34519 -1.25955 5 4 4 0 9 0 0 97.5615 
1798 5 -0.660796 8.04971 3.77153 -5.92421 0 0 0 0 0 0 4 5 5 0 9 0 0 0 
2074 5 -0.704228 7.60378 5.27397 -2.61894 0 0 0 0 0 0 5 4 4 0 9 0 0 0 
433 1 -0.646908 7.97833 4.38625 3.71372 0 0 0 -4.75055 -4.19562 0.608473 0 5 1 4 5 0 0 260.037 
417 2 0.650513 7.7691 5.38496 5.48389 0 0 0 0.625471 -1.09652 -1.38726 5 0 0 0 5 0 0 251.744 
740 3 -0.652561 7.46853 4.90976 12.5954 0 0 0 2.38193 6.09608 -3.42366 3 6 6 0 9 0 0 349.937 
817 3 -0.553855 8.17037 5.15672 16.3364 0 0 0 0.735195 -4.08356 -2.03767 5 4 4 0 9 0 0 137.057 
2731 9 -0.608058 7.64286 4.37111 24.4713 0 0 0 -2.50703 -1.42853 4.81293 6 4 4 0 10 0 0 201.982 
3290 9 -0.644852 7.54203 5.09561 31.1451 0 0 0 0 0 0 5 4 4 0 9 0 0 0 
1445 6 0.851649 8.87963 3.977 -8.45619 0 0 0 0 0 0 4 0 0 0 4 0 0 0 
124 2 0.617677 8.66545 4.12841 -0.243156 0 0 0 0 0 0 5 1 1 0 6 0 0 0 
753 3 -0.639525 8.93294 5.29238 10.1624 0 0 0 4.03381 -0.610886 1.23072 2 5 5 0 7 0 0 116.477 
318 1 -0.679278 8.33609 5.20021 7.33076 0 0 0 -0.0491126 2.41288 -1.48035 1 4 3 1 5 0 0 51.4146 
2313 10 1.06081 8.56521 3.7913 22.9593 0 0 0 0.26877 0.496363 -0.674825 7 0 0 0 7 0 0 56.1495 
2272 8 1.00083 8.49285 4.99508 20.1176 0 0 0 -1.23524 0.334424 0.306972 7 0 0 0 7 0 0 125.638 
3336 9 -0.61642 8.8897 5.42748 28.7146 0 0 0 0 0 0 5 4 4 0 9 0 0 0 
2661 10 1.01616 8.52995 5.28042 26.3907 0 0 0 1.14748 0.79011 2.70688 7 0 0 0 7 0 0 672.352 
1773 6 1.02052 9.46426 5.14138 -5.49567 0 0 0 0 0 0 6 0 0 0 6 0 0 0 
1599 5 -0.513942 9.62046 3.98375 -3.84718 0 0 0 0 0 0 6 3 3 0 9 0 0 0 
615 1 -0.688342 9.71032 4.29636 1.43641 0 0 0 3.63896 4.18001 -0.930625 0 6 0 6 6 0 0 202.562 
624 2 0.695434 10.1429 5.10895 3.28487 0 0 0 0.742732 0.602783 -0.814807 6 0 0 0 6 0 0 112.984 
2989 10 1.00284 9.87704 4.10709 29.7518 0 0 0 0 0 0 7 0 0 0 7 0 0 0 
3078 9 -0.628342 10.1466 4.47611 32.1118 0 0 0 0 0 0 4 4 4 0 8 0 0 0 
1862 5 -0.624094 10.2392 5.0646 -1.25821 0 0 0 0 0 0 4 4 2 2 8 0 0 0 
2174 8 1.00133 10.2972 5.22032 15.7896 0 0 0 2.12113 -2.96375 -0.223911 7 0 0 0 7 0 0 967.246 
936 3 -0.522038 10.5742 4.77701 17.7585 0 0 0 0.842527 1.20997 7.24188 4 3 3 0 7 0 0 350.332 
2562 9 -0.54203 10.3417 4.14031 25.7051 0 0 0 -1.53595 -6.17494 -1.22885 5 3 3 0 8 0 0 269.388 
1852 5 -0.603387 11.3863 5.01751 -5.61017 0 0 0 0 0 0 4 3 3 0 7 0 0 0 
821 4 0.837169 11.4343 4.22319 5.83639 0 0 0 -0.817646 -2.00783 1.91716 6 0 0 0 6 0 0 607.59 
1144 3 -0.672603 11.9627 5.19505 10.5616 0 0 0 -3.66121 -1.09277 4.73184 2 4 4 0 6 0 0 237.252 
869 3 -0.561083 11.2189 3.95182 12.8287 0 0 0 3.01447 -3.28496 5.92213 4 3 3 0 7 0 0 352.454 
1074 3 -0.528003 11.9418 3.87213 15.7815 0 0 0 1.04155 2.98856 7.12233 5 4 4 0 9 0 0 389.619 
2280 10 0.981095 11.5346 3.89716 21.3416 0 0 0 1.17131 0.298302 0.401388 7 0 0 0 7 0 0 117.672 
2326 10 1.00676 11.0907 5.37743 24.5014 0 0 0 -1.03672 -0.885115 0.808698 7 0 0 0 7 0 0 182.246 
2062 5 -0.420749 12.8943 4.32967 -7.61057 0 0 0 0 0 0 2 2 2 0 4 0 0 0 
1926 6 1.01932 12.1109 4.63887 -1.42118 0 0 0 0 0 0 6 1 1 0 7 0 0 0 
963 3 -0.629507 12.3689 5.07121 22.8798 0 0 0 1.38694 -8.69677 -0.878289 3 4 4 0 7 0 0 502.411 
2386 8 0.998494 12.2805 3.834 17.8517 0 0 0 2.93481 0.030253 1.05266 7 0 0 0 7 0 0 705.283 
3068 9 -0.459465 12.2403 4.38525 28.2824 0 0 0 0 0 0 5 3 3 0 8 0 0 0 
2708 9 -0.466593 12.755 5.07333 25.6951 0 0 0 1.1423 2.51869 -1.57984 5 3 3 0 8 0 0 65.0683 
3142 10 0.910619 12.1938 4.55638 31.9223 0 0 0 0 0 0 5 0 0 0 5 0 0 0 
84 2 0.681139 13.1945 4.85781 3.26425 0 0 0 -1.11392 -0.553403 -1.63285 6 0 0 0 6 0 0 301.492 
15 1 -0.659488 12.9782 4.09258 1.35003 0 0 0 2.27089 1.08901 -5.44047 0 4 0 4 4 0 0 230.534 
54 1 -0.682821 13.1453 5.51951 5.32638 0 0 0 2.79932 -5.02392 0.050672 0 5 4 1 5 0 0 212.17 
2240 8 1.06032 13.5965 4.87965 15.0237 0 0 0 -0.216516 -0.646352 -0.479544 6 0 0 0 6 0 0 50.3902 
1148 3 -0.612191 13.7355 5.30384 17.0513 0 0 0 -2.04761 3.01529 -5.55516 6 4 4 0 10 0 0 283.148 
2918 9 -0.642491 13.0241 3.81505 30.3846 0 0 0 0 0 0 6 5 5 0 11 0 0 0 
1977 6 0.878831 14.7581 4.81967 -7.3243 0 0 0 0 0 0 5 0 0 0 5 0 0 0 
1943 5 -0.636698 14.2369 4.43833 -1.32075 0 0 0 0 0 0 5 5 4 1 10 0 0 0 
591 1 -0.624544 14.0118 4.5599 8.28459 0 0 0 -2.81253 1.01462 -2.30365 2 5 5 0 7 0 0 91.3796 
898 4 0.852137 14.5796 4.26388 6.07338 0 0 0 -1.351 -1.82745 -0.694416 6 0 0 0 6 0 0 409.658 
734 4 0.985197 13.8705 5.30787 10.5944 0 0 0 0.709732 3.63041 0.617357 7 0 0 0 7 0 0 1020.31 
914 3 -0.572074 13.869 4.11527 13.0749 0 0 0 -1.6801 -2.23529 -2.23115 4 4 4 0 8 0 0 82.0833 
2175 10 0.973293 13.9859 4.24946 23.9259 0 0 0 0.450731 -1.15631 1.11344 6 0 0 0 6 0 0 201.671 
2330 7 -0.548678 13.8655 4.25411 20.9446 0 0 0 11.0832 2.18196 1.8008 6 4 4 0 10 0 0 839.229 
1495 6 1.00914 0.0800003 6.34961 -5.01221 0 0 0 0 0 0 7 0 0 0 7 0 0 0 
1755 6 0.926948 0.384275 6.86601 -1.11789 0 0 0 0 0 0 6 1 0 1 7 0 0 0 
1252 4 0.849119 0.848144 6.37759 7.4562 0 0 0 2.62704 -1.57047 -1.02432 6 0 0 0 6 0 0 755.691 
332 1 -0.653755 0.462939 7.32593 5.72861 0 0 0 0.774926 6.20132 -2.14629 2 6 1 5 8 0 0 280.063 
1234 3 -0.551259 0.543789 5.82863 11.1731 1 0 0 3.02963 -3.26225 -5.56139 2 3 2 1 5 0 0 325.517 
2584 9 -0.60374 0.643236 7.22748 24.246 0 0 0 -5.00707 -1.07926 -2.28206 5 3 3 0 8 0 0 201.681 
2179 10 1.05107 0.414618 5.93451 22.8192 0 0 0 -0.761036 2.30432 3.06815 6 0 0 0 6 0 0 1110.12 
2157 10 0.988331 0.0469494 7.06908 26.2715 0 0 0 -0.77599 -1.00248 -0.748647 5 0 0 0 5 0 0 157.246 
2764 9 -0.638865 0.237092 6.86054 31.0174 0 0 0 0 0 0 3 4 4 0 7 0 0 0 
1938 5 -0.434535 1.34365 5.56078 -6.82473 0 0 0 0 0 0 6 3 3 0 9 0 0 0 
515 1 -0.646001 1.65277 6.70338 3.33565 0 0 0 7.20172 4.44608 -4.59045 2 4 0 4 6 0 0 594.62 
657 1 -0.552386 1.25802 6.83259 14.043 1 0 0 2.57509 3.39208 8.22293 5 3 2 1 8 0 0 550.036 
874 3 -0.631562 1.0184 7.02366 19.2406 1 0 0 4.47698 1.39742 5.05733 5 4 4 0 9 0 0 305.137 
2794 9 -0.539528 1.79516 6.24236 33.0597 0 0 0 0 0 0 1 4 4 0 5 0 0 0 
1448 5 -0.485673 2.02178 7.15582 -2.16276 0 0 0 0 0 0 3 2 2 0 5 0 0 0 
713 2 0.67684 2.5194 7.05348 5.12647 0 0 0 -0.5814 0.00347611 -1.20109 5 0 0 0 5 0 0 127.421 
1196 4 0.915258 2.25601 6.00173 10.2824 0 0 0 -0.347698 -1.03815 0.802627 6 0 0 0 6 0 0 133.689 
1174 4 1.00016 1.99712 6.72056 17.4824 0 0 0 -0.64272 0.517726 -1.60326 5 0 0 0 5 0 0 235.883 
2615 9 -0.622893 2.05526 6.80554 21.5837 0 0 0 2.54733 -1.71822 -2.10173 5 4 4 0 9 0 0 88.8897 
2971 10 1.01224 2.01292 6.03476 30.966 0 0 0 0 0 0 6 1 1 0 7 0 0 0 
3206 9 -0.352823 2.4619 6.19753 28.9789 0 0 0 0 0 0 4 2 2 0 6 0 0 0 
1674 5 -0.439799 3.62 5.72765 -5.19568 0 0 0 0 0 0 4 3 3 0 7 0 0 0 
1520 5 -0.3745 3.0559 6.59328 -8.52797 0 0 0 0 0 0 3 2 2 0 5 0 0 0 
547 1 -0.663052 2.93157 6.24504 0.609484 0 0 0 7.78932 2.05902 7.07748 2 5 2 3 7 0 0 737.649 