ITEM: TIMESTEP
500000
ITEM: NUMBER OF ATOMS
3344
ITEM: BOX BOUNDS pp pp ff
0.0000000000000000e+00 2.9565597895300002e+01
0.0000000000000000e+00 2.9545719921200000e+01
-8.8921683279000003e+00 4.4289169250699999e+01
ITEM: ATOMS id type q x y z ix iy iz vx vy vz v_Ocoord v_Mcoord v_Tacoord v_Hfcoord c_ncoord[11] c_locpot[1] c_locpot[2] v_vtemp2 
1916 5 -0.653657 0.565397 1.81354 -5.14473 0 0 0 0 0 0 2 4 4 0 6 -0.05 0 0 
2060 6 0.961198 0.439399 0.297219 -6.42671 0 0 0 0 0 0 6 0 0 0 6 -0.05 0 0 
446 2 0.708421 0.71767 0.33154 7.84 0 0 0 0.320159 -0.118739 1.11339 7 0 0 0 7 0 0 97.049 
1251 3 -0.616697 0.739345 0.607321 10.3851 1 0 0 -1.5101 4.85221 -3.83798 4 4 3 1 8 0 0 260.121 
1368 4 0.993788 0.0217075 0.867954 13.4605 1 0 0 1.33358 0.323066 0.226165 6 0 0 0 6 0 0 140.298 
1219 3 -0.591964 0.885135 1.68886 15.3513 0 0 0 -10.2702 1.43449 -2.39246 4 4 4 0 8 0 0 726.45 
2628 8 0.973084 0.190995 1.00259 19.2434 0 0 0 2.7324 2.58919 1.72155 6 0 0 0 6 0 0 1242.95 
2158 9 -0.699939 0.780155 1.09684 21.1585 0 0 0 -3.97994 -2.69047 1.15021 3 4 4 0 7 0.0499823 2.04491e-08 156.515 
3132 9 -0.52848 0.679753 1.42961 29.1746 0 0 0 0 0 0 2 3 3 0 5 0.0499995 -1.36698e-06 0 
3180 9 -0.550672 0.826764 0.29725 26.4366 1 1 0 -5.29597 0.270769 -0.782562 2 4 0 4 6 0.0499941 8.65408e-09 184.297 
676 2 0.738121 1.09981 0.0753033 2.78602 0 0 0 -1.08156 2.41342 -0.0969989 6 0 0 0 6 0 0 501.177 
3260 9 -0.598143 1.31052 0.751809 31.9011 0 0 0 0 0 0 3 3 3 0 6 0.05 0 0 
1964 5 -0.551569 2.09889 0.635642 -7.3032 0 0 0 0 0 0 5 3 3 0 8 -0.05 0 0 
1568 6 1.00283 2.40983 1.47782 -3.96776 0 0 0 0 0 0 6 0 0 0 6 -0.0499999 1.899e-07 0 
2094 6 0.96043 1.88086 1.48603 -0.680391 0 0 0 0 0 0 5 0 0 0 5 -0.049996 -2.05704e-08 0 
691 1 -0.631611 2.39388 1.19302 1.38066 0 0 0 5.88027 -3.19199 -5.75637 0 4 1 3 4 0 0 499.675 
347 1 -0.600411 2.54638 1.07777 8.34044 0 0 0 1.70321 2.93791 -1.65821 5 4 1 3 9 0 0 91.6059 
403 1 -0.576949 1.98566 0.436309 13.2027 0 1 0 4.59059 2.51529 -3.3061 6 4 4 0 10 0 0 245.856 
2635 10 0.991492 2.5447 0.261326 21.4409 0 1 0 0.980721 -1.0897 1.57577 5 0 0 0 5 0.0499816 2.02843e-08 336.048 
2784 10 0.961623 2.12342 0.27928 30.1509 0 0 0 0 0 0 7 0 0 0 7 0.05 -8.62073e-08 0 
3343 10 0.997886 2.01615 0.34781 24.8932 0 1 0 0.169993 0.223719 -0.262478 7 0 0 0 7 0.0499905 1.28054e-08 10.7252 
305 1 -0.654307 2.81039 0.180978 4.03237 0 0 0 -10.3001 3.14078 -1.35617 0 4 0 4 4 0 0 755.556 
2580 8 0.972956 2.80262 1.21385 15.0985 0 0 0 -0.42907 1.23354 2.00608 6 0 0 0 6 0 0 415.685 
2414 9 -0.610602 3.33793 0.336211 23.2586 0 1 0 -6.12392 -5.5343 -3.99385 2 4 4 0 6 0.0499869 1.60161e-08 539.311 
3315 9 -0.569367 3.1236 0.731628 28.4883 0 0 0 0 0 0 5 4 4 0 9 0.0499991 -2.15475e-06 0 
3061 9 -0.492276 3.45108 0.783091 33.7918 0 0 0 0 0 0 2 2 2 0 4 0.05 0 0 
2042 5 -0.609819 3.88143 0.542646 -5.37079 0 0 0 0 0 0 6 4 4 0 10 -0.05 5.73396e-09 0 
1505 6 1.03018 3.73506 1.79056 -6.98584 0 0 0 0 0 0 6 0 0 0 6 -0.05 0 0 
1747 5 -0.57991 4.24191 1.20972 -2.94474 0 0 0 0 0 0 5 3 3 0 8 -0.0499982 4.45754e-06 0 
685 2 0.742942 4.10518 0.970334 2.44539 0 0 0 -2.80476 -0.764307 -1.04904 6 0 0 0 6 0 0 683.473 
568 2 0.733014 4.00057 0.135382 6.65076 0 0 0 0.961803 2.54995 -0.295283 6 0 0 0 6 0 0 537.725 
364 1 -0.593464 3.92564 0.722846 11.2929 0 0 0 -0.304285 -5.24716 3.55389 3 4 3 1 7 0 0 258.203 
1225 3 -0.503965 4.50635 1.19314 16.2164 1 0 0 7.10403 0.443401 0.27627 4 3 3 0 7 0 0 325.454 
3053 9 -0.580739 3.92468 1.13022 25.6347 0 0 0 -3.81441 -1.90232 -2.43797 4 4 4 0 8 0.0499925 9.63547e-09 154.659 
3319 9 -0.619827 3.97762 0.122441 31.2829 0 0 0 0 0 0 5 5 5 0 10 0.05 0 0 
3048 10 0.904007 4.18657 1.84405 32.4339 0 0 0 0 0 0 7 0 0 0 7 0.05 0 0 
1444 5 -0.413968 4.98526 0.995303 -8.33165 0 0 0 0 0 0 2 2 2 0 4 -0.05 0 0 
462 1 -0.658169 5.45938 1.48632 1.0394 0 0 0 -1.78046 0.726268 -0.23139 1 5 1 4 6 0 0 24.0597 
1128 4 1.01567 5.24193 0.446494 12.5889 0 1 0 0.764823 1.08435 -1.3069 6 0 0 0 6 0 0 251.638 
2412 8 1.00472 5.34119 1.38254 20.4812 0 0 0 -2.37648 -0.951877 0.628749 6 0 0 0 6 0 0 504.113 
2569 7 -0.574542 5.45873 1.75535 18.5959 0 1 0 -4.34296 -6.33161 -1.3546 6 3 3 0 9 0 0 389.886 
1765 6 1.01205 5.6873 1.27875 -4.40744 0 0 0 0 0 0 7 0 0 0 7 -0.0499999 3.73839e-07 0 
510 1 -0.593376 5.67061 0.924427 3.81414 0 0 0 -4.71154 4.22412 -2.4288 2 4 0 4 6 0 0 294.67 
639 1 -0.611612 5.71635 0.829665 7.59459 0 0 0 -1.23031 1.01391 1.47748 3 4 0 4 7 0 0 30.3042 
53 2 0.755297 5.88414 0.157885 9.50406 0 0 0 0.0587909 -1.01053 2.09349 7 0 0 0 7 0 0 386.937 
2462 8 1.00668 5.67225 0.0411947 17.672 0 0 0 -0.317352 0.316717 1.7043 7 0 0 0 7 0 0 225.299 
818 3 -0.577485 5.94043 0.912191 22.4351 0 1 0 0.502959 -2.32737 0.881068 5 4 4 0 9 0 0 41.345 
2981 10 1.03246 5.56077 0.658066 29.5097 0 0 0 0 0 0 7 0 0 0 7 0.0499999 -2.18901e-07 0 
2891 9 -0.555669 6.36617 1.50143 25.3112 0 1 0 -4.28281 4.68696 0.0653405 5 3 3 0 8 0.0499913 1.06075e-08 258.581 
2871 9 -0.476684 6.215 0.614961 32.9195 0 0 0 0 0 0 2 3 3 0 5 0.05 0 0 
1655 5 -0.539228 6.71174 0.832704 -1.31394 0 0 0 0 0 0 3 4 3 1 7 -0.0499842 -1.12671e-07 0 
490 2 0.735104 7.29616 0.349999 6.50471 0 0 0 -0.777774 -1.02997 1.09188 6 0 0 0 6 -0.0488117 -1.03766e-05 204.511 
1168 3 -0.560218 6.91438 1.68226 15.0928 0 0 0 2.2953 0.805134 6.51359 6 3 3 0 9 0 0 310.082 
1457 5 -0.443854 7.63017 1.51366 -7.75955 0 0 0 0 0 0 4 2 2 0 6 -0.05 0 0 
1720 5 -0.598029 7.72777 1.64954 -4.36983 0 0 0 0 0 0 4 4 4 0 8 -0.0499998 4.60452e-07 0 
524 1 -0.542866 8.26314 0.331127 3.19305 0 0 0 1.55491 2.78027 -4.57306 1 4 0 4 5 0 0 199.226 
65 1 -0.565133 7.62206 0.794146 10.497 0 0 0 6.88133 -1.2326 1.76046 6 3 2 1 9 0 0 333.35 
735 3 -0.622915 7.62572 0.631087 17.3357 0 0 0 7.42342 0.446898 7.68576 5 4 4 0 9 0 0 733.633 
3091 9 -0.462843 7.83876 0.749572 28.4887 0 0 0 0 0 0 4 5 5 0 9 0.0499993 -1.75769e-06 0 
1875 5 -0.608122 9.10952 0.014567 -6.25204 0 0 0 0 0 0 5 3 3 0 8 -0.05 0 0 
2008 6 0.940945 8.91277 1.19651 -0.834599 0 0 0 0 0 0 5 0 0 0 5 -0.0499798 -1.54025e-07 0 
155 1 -0.602741 8.60482 1.45755 8.06968 0 0 0 0.812989 0.156205 -0.190174 3 4 2 2 7 0 0 4.62791 
1061 4 0.924278 9.21984 0.135429 9.55371 0 0 0 1.33437 2.70018 1.69062 6 0 0 0 6 0 0 865.432 
1313 4 0.960127 8.41787 1.71104 12.2177 0 0 0 -0.132793 0.246892 1.4174 6 0 0 0 6 0 0 151.444 
2135 7 -0.533557 8.55611 0.705135 23.4249 0 0 0 -5.9741 1.67988 0.23393 4 4 4 0 8 0 0 247.371 
2226 9 -0.544762 8.5223 1.79355 20.8894 0 0 0 2.24052 -0.366666 6.70367 5 3 3 0 8 0.0499763 2.75334e-08 321.306 
3199 10 1.01743 9.05238 0.700276 30.1712 0 0 0 0 0 0 6 0 0 0 6 0.05 -5.77774e-08 0 
3013 10 1.00881 8.44153 1.6453 25.2209 0 0 0 -0.902078 3.61966 0.690046 6 0 0 0 6 0.0499902 1.14662e-08 1044.05 
2936 9 -0.664317 8.41326 1.46339 31.7808 0 0 0 0 0 0 6 4 4 0 10 0.05 0 0 
1486 5 -0.645593 9.27255 0.356614 -2.53512 0 0 0 0 0 0 5 4 4 0 9 -0.0499967 8.32659e-06 0 
1194 3 -0.568623 9.57386 0.279673 15.4382 0 0 0 -0.8536 -1.80538 4.74859 4 3 3 0 7 0 0 170.212 
2403 9 -0.619923 10.1524 0.164804 19.9659 0 1 0 2.1821 -8.03363 -4.44123 4 4 4 0 8 0.0499625 4.06044e-08 571.019 
2702 9 -0.482534 9.94437 0.268895 33.4083 0 0 0 0 0 0 3 3 3 0 6 0.05 0 0 
1675 5 -0.402832 10.3041 0.804316 -8.66604 0 0 0 0 0 0 3 2 2 0 5 -0.05 0 0 
1781 5 -0.597759 10.6491 1.72359 -4.86992 0 0 0 0 0 0 6 4 4 0 10 -0.05 3.92859e-09 0 
43 2 0.668324 10.3719 1.37618 6.98504 0 0 0 -0.468534 -0.143162 -0.766538 5 0 0 0 5 0 0 59.2215 
338 1 -0.667352 10.4899 0.508826 5.07469 0 1 0 -0.979281 -2.03318 3.02762 1 5 1 4 6 0 0 91.4609 
1304 4 0.996248 10.5635 1.80602 14.6305 0 0 0 0.123447 -2.45203 -0.354769 5 0 0 0 5 0 0 446.405 
2673 9 -0.470918 10.3461 1.19563 25.5813 0 0 0 0.158693 -1.04612 1.57528 3 3 3 0 6 0.0499859 1.44758e-08 23.0977 
1952 6 1.0209 11.9793 0.109213 -5.38418 0 0 0 0 0 0 6 0 0 0 6 -0.05 0 0 
1685 5 -0.63675 11.7952 0.419201 -2.06125 0 0 0 0 0 0 6 4 3 1 10 -0.0499971 7.21464e-06 0 
227 1 -0.63282 11.4108 0.523598 1.62983 0 1 0 -2.33032 0.492185 1.90005 3 4 0 4 7 0 0 59.5412 
869 3 -0.654848 11.3938 1.57413 12.8539 0 0 0 -2.57502 -0.872432 -2.46713 5 4 4 0 9 0 0 86.4534 
951 3 -0.586585 11.2737 1.09356 22.2659 0 0 0 -10.5274 0.583805 -1.61743 3 4 4 0 7 0 0 729.818 
1618 5 -0.615217 12.423 1.59185 -6.77081 0 0 0 0 0 0 5 3 3 0 8 -0.05 0 0 
1589 6 0.809673 12.128 0.884716 -8.43919 0 0 0 0 0 0 3 0 0 0 3 -0.05 0 0 
135 2 0.73529 12.4905 0.936139 -0.271834 0 0 0 0 0 0 6 0 0 0 6 0 0 0 
397 2 0.682683 12.0972 0.606263 3.67399 0 1 0 2.04112 0.0982672 -0.480034 5 0 0 0 5 -0.0490556 -7.35426e-06 315.303 
1279 4 0.956591 12.1309 0.0971807 9.14474 0 0 0 0.878781 -0.864187 3.16804 7 0 0 0 7 0 0 838.287 
236 1 -0.543679 12.8744 1.32566 10.6777 0 0 0 -4.08275 2.24468 2.89378 5 4 4 0 9 0 0 192.946 
1074 3 -0.599744 12.3786 0.984062 15.268 0 0 0 4.91298 -5.42011 -3.7731 4 4 4 0 8 0 0 434.566 
948 4 0.975667 12.1478 0.92506 17.4978 0 0 0 -0.438653 -0.960289 -1.09843 6 0 0 0 6 0 0 168.385 
2404 9 -0.550174 12.6847 0.727148 19.5665 0 1 0 -0.368513 0.020196 5.18804 2 4 4 0 6 0.0499622 3.77271e-08 173.515 
2834 9 -0.564289 12.9031 1.69224 26.2791 0 0 0 2.33873 7.86741 2.05276 3 3 3 0 6 0.0499904 8.92447e-09 459.121 
3329 10 1.03413 12.4159 1.62106 31.2252 0 0 0 0 0 0 6 0 0 0 6 0.05 -3.33815e-08 0 
1725 5 -0.608176 13.522 1.03746 -3.95826 0 0 0 0 0 0 4 4 4 0 8 -0.0499999 2.68462e-07 0 
386 1 -0.679733 13.2274 0.102736 7.2989 0 0 0 3.74834 2.50565 -1.55749 2 4 4 0 6 0 0 145.947 
1222 4 0.987311 13.5267 1.7509 13.7605 0 0 0 2.39414 -0.0853597 0.934544 7 0 0 0 7 0 0 479.705 
2142 10 0.974059 13.0735 1.32973 23.0221 0 0 0 -0.709846 0.671432 0.846669 6 0 0 0 6 0.0499762 2.17634e-08 121.261 
2972 9 -0.608389 13.274 1.34725 29.3302 0 0 0 0 0 0 5 4 4 0 9 0.0499994 -1.42392e-06 0 
1478 5 -0.61883 14.6219 0.32326 -7.01123 0 0 0 0 0 0 4 3 3 0 7 -0.05 0 0 
619 1 -0.537834 13.9876 1.14723 1.99526 0 0 0 0.311693 2.3715 3.17445 4 5 0 5 9 0 0 101.332 
885 4 0.87437 13.9821 1.43231 6.14545 0 0 0 -0.9668 -1.09721 0.305185 5 0 0 0 5 -0.0483024 -1.34809e-05 161.897 
2591 10 0.998175 14.7413 0.429006 19.9756 0 0 0 -0.135648 -1.98009 -1.37535 7 0 0 0 7 0.0499638 3.53108e-08 422.986 
2556 9 -0.572297 13.8885 0.0128439 21.7539 0 1 0 4.73639 -3.44572 -1.37018 4 5 5 0 9 0.0499648 3.11316e-08 232.087 
2852 9 -0.595194 13.9417 0.691476 31.8906 0 0 0 0 0 0 3 5 5 0 8 0.05 0 0 
92 1 -0.675955 0.777005 2.26669 3.66934 0 0 0 -1.121 4.99458 2.45854 1 6 0 6 7 0 0 206.836 
864 4 0.929924 0.575879 2.5344 10.2349 0 0 0 -2.3645 0.247327 -2.96712 6 0 0 0 6 0 0 1048.69 
516 1 -0.589405 0.785058 1.95412 6.47829 0 0 0 0.473719 0.387354 -2.68899 1 5 1 4 6 0 0 48.7804 
2134 8 0.940966 0.779873 2.96531 16.8688 0 0 0 0.408401 0.187599 1.82866 7 0 0 0 7 0 0 257.242 
1234 3 -0.608236 0.607822 2.57533 12.3766 1 0 0 2.39643 2.63233 -0.401324 5 4 4 0 9 0 0 82.313 
2585 10 1.01142 0.431541 2.84335 22.0995 0 0 0 1.33223 0.201614 0.0660018 6 0 0 0 6 0.049983 1.86217e-08 132.019 
1014 3 -0.607793 0.415785 2.99862 19.0567 1 0 0 0.476834 1.7456 2.04638 5 4 4 0 9 0 0 47.8632 
2995 10 0.996752 0.440389 2.20149 27.3794 0 0 0 0.224414 -1.54829 -1.53518 5 0 0 0 5 0.0499969 4.32263e-09 348.526 
2044 5 -0.625455 1.37469 2.08479 -2.3641 0 0 0 0 0 0 2 3 3 0 5 -0.0499988 3.09439e-06 0 
1779 6 1.03824 0.93901 3.49828 -6.2669 0 0 0 0 0 0 6 0 0 0 6 -0.05 0 0 
634 2 0.698927 1.66144 2.96352 1.93259 0 0 0 -2.34633 3.05256 0.113139 6 0 0 0 6 0 0 1061.65 
2510 9 -0.553943 0.927192 1.93039 23.9022 0 0 0 7.676 -0.0660085 2.21012 5 4 4 0 9 0.049988 1.47577e-08 409.286 
3238 10 1.01501 1.392 2.77277 31.8487 0 0 0 0 0 0 5 4 4 0 9 0.05 0 0 
1452 5 -0.41278 2.28651 3.14292 -7.53225 0 0 0 0 0 0 5 2 2 0 7 -0.05 0 0 
550 2 0.718468 2.37694 3.02825 7.64226 0 0 0 0.52682 -0.438433 0.746952 7 0 0 0 7 0 0 73.5402 
469 1 -0.599339 2.46182 2.92172 10.3461 0 0 0 2.7404 -5.82153 -3.52126 5 4 3 1 9 0 0 345.076 
85 2 0.72899 2.24855 1.89941 4.92768 0 0 0 -1.39964 -1.07398 -0.599878 6 0 0 0 6 0 0 248.468 
2470 10 0.988586 2.55615 3.222 19.7305 0 0 0 -0.0424478 -1.48121 -0.550313 6 0 0 0 6 0.0499634 2.93562e-08 181.262 
2194 9 -0.504056 2.73547 1.88086 18.3043 0 0 0 -1.90519 5.72283 5.54841 6 3 3 0 9 0.0499621 3.06489e-08 430.808 
2668 9 -0.623027 1.96821 2.69315 26.2285 0 0 0 -1.73698 -2.06576 4.30894 6 4 4 0 10 0.0499939 7.86369e-09 165.814 
3069 9 -0.589327 2.68933 3.28581 33.1228 0 0 0 0 0 0 5 3 3 0 8 0.05 0 0 
2099 5 -0.524056 3.07432 3.05338 -4.85298 0 0 0 0 0 0 5 4 4 0 9 -0.05 0 0 
123 1 -0.618521 3.45007 3.11279 3.52405 0 0 0 -0.101593 0.120838 1.84397 1 6 0 6 7 0 0 21.9693 
1318 4 0.992976 2.84238 2.52479 12.2231 0 0 0 -1.04744 -0.581637 1.26855 7 0 0 0 7 0 0 220.871 
2736 9 -0.558197 3.33226 3.19662 23.2898 0 0 0 -0.360216 5.03088 -1.00741 3 3 3 0 6 0.0499862 1.54437e-08 169.682 
2324 9 -0.597604 3.38388 1.94993 20.8521 0 1 0 7.66525 -0.0870646 1.40361 5 3 3 0 8 0.0499747 2.36516e-08 389.554 
2963 9 -0.611287 2.93678 2.49625 30.6363 0 0 0 0 0 0 6 4 4 0 10 0.05 -2.06015e-08 0 
3323 10 1.0663 3.55921 2.01834 27.305 0 0 0 -0.958307 -2.55138 -1.2 5 0 0 0 5 0.0499969 3.9846e-09 643.314 
1845 5 -0.56037 3.70901 2.63933 -0.891994 0 0 0 0 0 0 3 3 3 0 6 -0.0499948 -3.06347e-08 0 
374 1 -0.629091 3.93073 2.18627 6.26718 0 0 0 1.00318 -1.49739 5.50778 3 5 0 5 8 0 0 215.413 
1181 4 1.00857 4.14303 2.98917 17.2612 0 0 0 -0.168496 0.0938231 -0.549634 6 0 0 0 6 0 0 24.6136 
1149 3 -0.610197 4.10033 2.07063 13.7893 0 0 0 -2.4964 6.89375 1.48997 4 4 4 0 8 0 0 359.036 
1864 5 -0.568274 5.46951 2.51635 -6.02753 0 0 0 0 0 0 3 3 3 0 6 -0.05 0 0 
440 1 -0.503583 5.3854 2.19774 9.73549 0 0 0 -2.786 -2.97116 -0.581051 4 3 1 2 7 0 0 108.573 
566 2 0.753603 5.39356 2.87635 7.67956 0 0 0 0.711815 1.10578 -0.179476 6 0 0 0 6 0 0 126.06 
14 2 0.721273 5.41764 2.73299 4.74862 0 0 0 -0.819926 2.33545 0.246037 6 0 0 0 6 0 0 442.74 
2452 10 1.03644 4.78063 1.88173 23.9776 0 0 0 0.697089 0.202781 0.545673 7 0 0 0 7 0.049989 1.31383e-08 59.8354 
3080 9 -0.693062 5.29801 2.0116 28.2446 0 0 0 0 0 0 4 4 4 0 8 0.0499992 -1.97454e-06 0 
1734 5 -0.621855 5.89902 3.08647 -2.87765 0 0 0 0 0 0 4 4 4 0 8 -0.0499984 4.00341e-06 0 
1832 6 0.917097 5.70544 2.515 -0.833516 0 0 0 0 0 0 5 0 0 0 5 -0.0499906 -6.52663e-08 0 
801 4 1.01979 5.91418 3.56452 10.9934 0 0 0 -0.723275 1.21258 -1.54866 6 0 0 0 6 0 0 318.602 
1395 3 -0.619593 6.4217 2.09593 12.4257 0 0 0 -0.474773 6.97322 -7.90237 5 4 4 0 9 0 0 713.884 
1134 4 1.00027 5.76893 3.12113 14.2236 0 0 0 -1.69426 0.154832 -1.33714 6 0 0 0 6 2.53214e-05 1.41271e-07 339.683 
1382 3 -0.619184 5.94807 3.61412 16.8404 0 0 0 2.85552 -1.40571 1.11013 5 5 5 0 10 0 0 72.88 
2619 9 -0.640121 6.07797 3.316 23.3751 0 0 0 -6.59229 -1.57395 -0.64596 7 4 4 0 11 0.0499867 1.54035e-08 297.313 
2400 9 -0.617279 5.58581 3.33392 20.8655 0 0 0 0.113632 2.08928 2.35663 6 4 4 0 10 0.0499772 2.20613e-08 63.7031 
2950 9 -0.636502 5.59395 2.20411 30.6577 0 0 0 0 0 0 6 4 4 0 10 0.05 0 0 
582 2 0.674064 7.13356 1.99173 2.21822 0 0 0 2.12929 -0.126569 -0.518327 5 0 0 0 5 -0.0496536 -2.76755e-06 344.807 
433 1 -0.687465 6.55377 3.65149 3.2128 0 0 0 2.32564 2.28828 -1.41178 1 4 0 4 5 0 0 81.0614 
3233 10 0.971887 6.82113 3.01238 28.1605 0 0 0 0 0 0 6 0 0 0 6 0.049999 -2.56183e-06 0 
3054 10 1.02947 7.10018 3.0552 31.6644 0 0 0 0 0 0 6 0 0 0 6 0.05 0 0 
1838 6 1.03619 7.7682 3.45886 -3.31166 0 0 0 0 0 0 7 0 0 0 7 -0.0499989 2.66806e-06 0 
318 1 -0.61594 7.51816 2.22432 5.55594 0 0 0 -0.0792887 5.54966 -6.70789 0 4 1 3 4 0 0 486.196 
2559 8 1.00937 7.66763 2.69859 16.9867 0 0 0 1.37447 -2.4286 1.09314 6 0 0 0 6 0 0 651.609 
2640 7 -0.482981 7.91741 3.45951 18.934 0 0 0 2.08033 -7.94071 -7.85499 3 3 3 0 6 0 0 827.958 
2313 10 1.02441 7.62476 2.80786 22.1546 0 0 0 -0.289397 -2.90751 -1.10357 7 0 0 0 7 0.049983 1.98796e-08 707.688 
3302 9 -0.599748 8.14319 2.96839 26.624 0 0 0 -2.20953 -0.504127 -0.733143 3 4 4 0 7 0.0499952 6.12053e-09 36.3917 
3014 9 -0.559145 8.11017 2.98742 29.829 0 0 0 0 0 0 8 4 4 0 12 0.0499999 -1.62748e-07 0 
3088 9 -0.436232 8.11583 3.33314 33.409 0 0 0 0 0 0 3 2 2 0 5 0.05 0 0 
1797 6 0.997365 8.90005 1.96386 -6.22444 0 0 0 0 0 0 6 0 0 0 6 -0.05 0 0 
1872 5 -0.669556 8.83065 2.81271 -1.73961 0 0 0 0 0 0 4 4 3 1 8 -0.0499923 -5.53717e-08 0 
615 1 -0.693836 8.63342 2.27878 0.874621 0 0 0 -1.46008 -1.15323 0.650586 1 4 1 3 5 0 0 24.919 
33 2 0.641223 9.15838 1.98119 4.38422 0 0 0 -0.447686 -1.72312 1.36903 4 0 0 0 4 -0.0493503 -5.20429e-06 360.926 
923 4 0.955798 8.72336 3.12925 9.22032 0 0 0 -1.30193 2.12359 0.963068 5 0 0 0 5 0 0 517.396 
1021 3 -0.602087 8.98535 2.62386 13.8496 0 0 0 5.87685 8.5166 1.31595 3 3 3 0 6 0 0 697.867 
2731 9 -0.566991 8.6479 3.44263 23.8894 0 0 0 2.37709 8.56148 -5.28514 6 4 4 0 10 0.0499891 1.44633e-08 685.556 
56 1 -0.634808 10.1389 3.45605 3.44631 0 0 0 -1.66141 -1.17125 7.03606 1 5 0 5 6 0 0 344.042 
255 1 -0.623067 9.92195 2.02931 10.5302 0 0 0 -2.98148 -2.98591 -5.29769 2 4 4 0 6 0 0 294.218 
981 3 -0.561155 9.96631 1.88578 17.5033 0 1 0 6.13235 2.84317 -1.34582 3 4 4 0 7 0 0 304.674 
2868 10 0.891718 9.90174 2.54585 32.8441 0 0 0 0 0 0 6 0 0 0 6 0.05 0 0 
1603 5 -0.525867 10.1944 3.06867 -7.24986 0 0 0 0 0 0 5 3 3 0 8 -0.05 0 0 
1652 6 0.971343 10.6696 2.18305 -2.91236 0 0 0 0 0 0 7 0 0 0 7 -0.0499975 6.16269e-06 0 
539 2 0.683592 10.3864 2.27941 1.64966 0 0 0 0.0225462 0.63491 -1.1256 4 0 0 0 4 -0.0494862 -4.09446e-06 119.545 
616 1 -0.590987 10.1791 3.58966 6.56346 0 0 0 2.40112 0.432499 0.658353 1 5 3 2 6 0 0 40.9596 
2613 8 0.993762 10.6651 2.10123 20.4744 0 0 0 2.02123 1.0864 1.22887 6 0 0 0 6 0 0 491.543 
2248 9 -0.559943 10.3699 3.66449 21.7155 0 0 0 6.0125 0.610938 -0.0967257 5 4 4 0 9 0.0499886 1.76177e-08 234.326 
2815 9 -0.579508 10.706 2.29401 30.5643 0 0 0 0 0 0 7 4 4 0 11 0.05 -7.62046e-08 0 
2819 9 -0.471328 10.2976 2.99634 28.0976 0 0 0 0 0 0 0 5 2 3 5 0.049999 -2.42405e-06 0 
1667 5 -0.616676 11.6086 2.8155 -1.15167 0 0 0 0 0 0 5 4 3 1 9 -0.0499852 -1.01476e-07 0 
525 1 -0.562911 11.8139 2.15387 8.2482 0 0 0 1.28081 3.15535 7.26042 4 4 3 1 8 0 0 412.496 
1093 4 1.0234 11.3045 2.94899 11.4776 0 0 0 1.66495 0.428365 -0.451838 6 0 0 0 6 0 0 229.22 
1035 3 -0.569484 11.2749 3.57385 15.5864 0 0 0 -3.40419 -1.76751 -0.556023 3 3 3 0 6 0 0 96.3513 
2204 7 -0.621843 11.3297 3.30661 19.1267 0 0 0 -5.85726 -4.77408 -3.16176 3 3 3 0 6 0 0 430.363 
2883 9 -0.530302 11.9946 2.65871 32.8145 0 0 0 0 0 0 2 3 3 0 5 0.05 0 0 
1525 6 1.05621 12.1252 3.21352 -5.83563 0 0 0 0 0 0 7 0 0 0 7 -0.05 0 0 
1756 5 -0.533229 12.2994 3.39059 -3.64621 0 0 0 0 0 0 7 4 4 0 11 -0.0499988 2.90954e-06 0 
15 1 -0.65872 12.0995 3.14332 1.55429 0 0 0 2.01291 0.0157696 -3.59637 5 4 1 3 9 0 0 108.95 
156 1 -0.632162 12.5095 2.34665 5.03991 0 1 0 -1.69359 -3.49254 -1.74254 2 4 3 1 6 0 0 116.112 
2562 9 -0.459091 12.5228 2.97381 23.9566 0 0 0 -4.0759 -4.33288 -2.61061 2 2 2 0 4 0.0499861 1.59639e-08 270.69 
2762 10 1.03667 12.3414 2.5306 28.0823 0 0 0 -1.19681 -0.422203 -1.15389 6 0 0 0 6 0.049998 1.89278e-09 213.43 
2113 6 0.957209 13.6805 2.55281 -2.42422 0 0 0 0 0 0 6 1 1 0 7 -0.0499968 8.10433e-06 0 
741 4 0.914773 13.0127 3.58788 3.59806 0 0 0 0.659954 -0.500727 -1.62103 5 0 0 0 5 -0.0484253 -1.25358e-05 240.412 
1273 4 0.92363 13.6603 2.78379 9.36125 0 0 0 -0.498802 -1.90646 0.84761 6 0 0 0 6 0 0 333.838 
936 3 -0.61834 13.321 2.44794 17.3007 0 0 0 4.23248 4.60435 -0.397373 4 4 4 0 8 0 0 251.894 
1239 3 -0.560301 13.2458 3.15828 21.214 0 0 0 -1.41135 -1.47489 -0.171342 3 4 4 0 7 0 0 26.9173 
2386 8 1.0227 13.4738 3.61854 18.8175 0 0 0 0.910837 0.0978629 1.32588 7 0 0 0 7 0 0 188.409 
1778 5 -0.578612 14.263 3.27485 -5.59741 0 0 0 0 0 0 5 4 4 0 9 -0.05 0 0 
1636 5 -0.695794 14.0157 2.09047 -0.574057 0 0 0 0 0 0 4 4 1 3 8 -0.0499916 -5.37625e-08 0 
148 2 0.696976 13.9089 3.45218 0.772762 0 0 0 -0.326392 -0.469098 0.296601 6 0 0 0 6 0 0 29.6649 
527 1 -0.679468 14.2659 3.09906 7.42951 0 0 0 2.16546 3.77541 -2.99524 2 5 4 1 7 0 0 179.046 
650 1 -0.599145 14.6114 2.67393 12.4827 0 0 0 10.3635 -6.20773 1.3083 4 3 3 0 7 0 0 947.044 
1317 3 -0.618433 14.584 2.82747 15.0701 0 0 0 2.02781 2.76694 1.34078 4 4 4 0 8 0 0 87.012 
2994 9 -0.576499 14.5293 3.14471 28.0358 0 0 0 0 0 0 3 4 4 0 7 0.0499982 -4.41598e-06 0 
1436 5 -0.567417 0.626464 4.5211 -4.58297 0 0 0 0 0 0 6 3 3 0 9 -0.05 9.44053e-10 0 
2022 6 1.03865 0.891188 4.04809 -2.78442 0 0 0 0 0 0 6 0 0 0 6 -0.0499978 5.43639e-06 0 
518 2 0.662952 0.448732 4.52408 4.29821 0 0 0 1.51434 0.822642 -0.248404 5 0 0 0 5 0 0 216.941 
250 1 -0.569723 0.0128191 4.26425 2.24644 0 0 0 3.93101 8.73993 -2.07959 2 5 0 5 7 0 0 616.807 
121 1 -0.656738 0.593281 3.99384 8.66386 0 0 0 3.41403 -4.13611 2.30097 2 5 4 1 7 0 0 218.449 
2269 9 -0.535779 0.33311 5.10489 15.7531 0 0 0 0.635814 1.84871 -0.644719 4 3 3 0 7 0.00598727 1.5332e-05 27.1808 
3139 9 -0.548222 0.653693 4.44879 23.3826 1 0 0 -1.38531 -2.13068 1.7003 5 4 4 0 9 0.0499864 1.5838e-08 59.9715 
3154 9 -0.600996 0.680911 4.08775 28.1362 0 0 0 0 0 0 6 4 4 0 10 0.0499988 -2.92551e-06 0 
2217 9 -0.518176 0.683417 5.04778 25.8185 0 0 0 2.96586 -1.70553 8.3718 4 5 0 5 9 0.0499937 8.27074e-09 524.626 
1853 5 -0.559572 0.966139 4.67692 -0.752145 0 0 0 0 0 0 3 5 4 1 8 -0.0499897 -4.02829e-08 0 
970 3 -0.598613 1.28743 5.3384 11.2316 0 0 0 0.646754 1.99141 -2.00777 3 3 3 0 6 0 0 53.9757 
845 3 -0.488837 1.39449 5.38192 18.5041 1 0 0 4.28166 3.64657 -3.84594 3 3 3 0 6 0 0 297.752 
2498 9 -0.589422 1.57875 4.13466 21.0857 0 0 0 -2.27813 -1.42659 6.44652 3 3 3 0 6 0.0499752 2.30113e-08 312.898 
2652 9 -0.607417 1.14889 4.39909 30.766 0 0 0 0 0 0 4 3 3 0 7 0.05 -1.17331e-08 0 
1917 5 -0.587002 2.67877 4.5683 -2.74178 0 0 0 0 0 0 5 3 3 0 8 -0.0499986 3.47961e-06 0 
25 1 -0.628634 2.31942 4.43496 6.01362 0 0 0 1.67249 -0.250759 -2.86843 1 6 2 4 7 0 0 71.1198 
2583 9 -0.400042 2.17836 4.21639 13.6597 0 0 0 -0.988977 2.17042 -0.627287 4 3 3 0 7 0.00570472 1.5426e-05 39.0126 
2461 7 -0.592168 2.57252 3.70747 16.3803 0 0 0 -5.77628 -1.07308 -1.64496 4 3 3 0 7 0 0 238.752 
2323 10 1.0047 2.12326 3.97152 24.7597 0 0 0 -0.552724 1.90105 0.835608 7 0 0 0 7 0.0499899 1.20963e-08 334.989 
1885 6 0.935498 3.03601 4.47604 -0.708394 0 0 0 0 0 0 5 0 0 0 5 -0.0499945 -2.75256e-08 0 
289 1 -0.686064 3.04787 4.31238 1.21257 0 0 0 -0.145745 2.88196 -1.75375 2 4 1 3 6 0 0 73.1373 
42 2 0.672338 3.36042 4.97768 4.35398 0 0 0 -1.05672 0.302849 -0.222686 6 0 0 0 6 -0.0497469 -2.36035e-06 90.0168 
1196 4 0.971335 2.91189 4.92218 10.183 0 0 0 0.948885 0.71936 -1.62563 7 0 0 0 7 0 0 294.568 
2890 9 -0.572847 3.44641 3.78611 28.1849 0 0 0 0 0 0 5 4 4 0 9 0.0499988 -2.95416e-06 0 
3101 10 0.849104 3.40644 5.05533 33.1662 0 0 0 0 0 0 5 1 1 0 6 0.05 0 0 
2086 5 -0.394694 4.53391 4.43896 -7.54119 0 0 0 0 0 0 4 2 2 0 6 -0.05 0 0 
2009 6 1.01965 4.36431 4.35498 -3.63585 0 0 0 0 0 0 6 0 0 0 6 -0.0499995 1.26001e-06 0 
29 1 -0.625585 3.8853 4.23843 8.46995 0 0 0 -1.24254 9.54705 1.75454 2 4 2 2 6 0 0 614.271 
80 1 -0.617914 4.22888 4.06784 12.0624 0 0 0 -2.5109 1.11769 -0.0701837 4 4 4 0 8 0 0 48.483 
2578 9 -0.68876 4.10016 4.23941 18.7699 0 0 0 0.269179 -2.51102 2.37495 5 4 4 0 9 0.0499356 4.24289e-08 77.0852 
2207 10 0.95864 4.57016 4.47929 22.2726 0 0 0 1.91252 -2.05152 1.88637 7 0 0 0 7 0.0499812 1.91638e-08 828.808 
3225 10 1.04914 4.18042 3.77198 30.0868 0 0 0 0 0 0 6 0 0 0 6 0.05 -1.02549e-07 0 
3133 9 -0.638064 3.86249 5.29362 31.1761 0 0 0 0 0 0 4 4 4 0 8 0.05 0 0 
1969 5 -0.631521 4.68733 5.20631 -1.40005 0 0 0 0 0 0 3 4 4 0 7 -0.0499925 -3.9548e-08 0 
390 2 0.672085 4.94264 4.07253 1.93499 0 0 0 0.970175 -1.61703 0.785496 6 0 0 0 6 0 0 298.615 
1030 3 -0.595687 4.77761 4.7014 14.8094 0 0 0 4.70306 6.48663 2.4217 3 3 3 0 6 0 0 449.373 
2200 10 0.970184 4.68472 5.12158 27.2777 0 0 0 -1.90786 -0.915948 1.12164 6 0 0 0 6 0.0499971 3.92028e-09 416.185 
2691 9 -0.537908 4.87806 3.8975 25.6576 0 0 0 1.00111 -2.51379 3.17526 3 3 3 0 6 0.0499934 8.35623e-09 111.629 
3185 9 -0.565951 5.53122 3.87318 32.6633 0 0 0 0 0 0 3 4 4 0 7 0.05 0 0 
2017 6 1.03742 6.32159 4.15256 -6.56845 0 0 0 0 0 0 6 0 0 0 6 -0.05 0 0 
1808 5 -0.624848 6.00788 4.95436 -4.65949 0 0 0 0 0 0 4 4 4 0 8 -0.05 7.81074e-08 0 
765 3 -0.606094 5.60954 5.45083 10.3139 0 0 0 -5.12782 2.43247 -6.35343 4 5 4 1 9 0 0 465.521 
620 1 -0.631894 5.61033 4.56385 5.9079 0 0 0 0.00217006 3.96805 1.75104 1 6 2 4 7 0 0 120.66 
2195 8 0.952911 6.03098 4.43369 19.3358 0 0 0 -1.70841 -1.23473 -0.131601 6 0 0 0 6 0 0 323.587 
3024 9 -0.61654 5.81725 4.42762 29.2591 0 0 0 0 0 0 7 4 4 0 11 0.0499997 -7.57737e-07 0 
1515 5 -0.399809 7.06813 3.90054 -8.71083 0 0 0 0 0 0 2 2 2 0 4 -0.05 0 0 
1716 6 0.902799 6.55301 5.52071 -1.14157 0 0 0 0 0 0 5 1 0 1 6 -0.0499885 -5.83879e-08 0 
184 1 -0.62741 6.58504 4.21506 0.485505 0 0 0 -3.69053 2.43929 -1.14839 1 4 2 2 5 0 0 133.985 
225 1 -0.656515 7.04953 3.72062 8.11294 0 0 0 8.31596 -3.21323 1.12317 4 4 3 1 8 0 0 517.886 
537 1 -0.546728 6.84576 4.59402 13.3444 0 0 0 3.70547 -2.92945 -3.23953 4 4 4 0 8 0 0 210.427 
2721 10 0.956991 6.6479 4.42332 24.8954 0 0 0 1.53041 -1.20827 -0.222883 7 0 0 0 7 0.0499913 1.13822e-08 279.423 
3327 9 -0.630497 6.79202 5.06515 26.7998 0 0 0 -7.32961 -2.281 5.56626 4 5 5 0 9 0.0499958 5.94555e-09 576.691 
1798 5 -0.659744 8.04971 3.77153 -5.92421 0 0 0 0 0 0 4 5 5 0 9 -0.05 0 0 
2074 5 -0.704324 7.60378 5.27397 -2.61894 0 0 0 0 0 0 5 4 4 0 9 -0.0499966 8.58474e-06 0 
233 2 0.707572 8.11453 4.73747 2.89053 0 0 0 1.6747 1.54162 0.966377 5 0 0 0 5 -0.0496184 -2.92884e-06 437.583 
1069 4 0.911095 8.05527 4.07532 6.32876 0 0 0 -0.955749 -0.388189 -0.133082 6 0 0 0 6 0 0 78.4826 
740 3 -0.611156 7.86078 3.9711 10.9005 0 0 0 -0.525091 1.03737 -5.52594 4 4 4 0 8 0 0 204.533 
1370 3 -0.613588 7.8359 4.6399 21.5556 0 0 0 4.34711 0.169018 3.44557 5 3 3 0 8 0 0 197.541 
3290 9 -0.641158 7.54203 5.09561 31.1451 0 0 0 0 0 0 5 4 4 0 9 0.05 0 0 
1445 6 0.854242 8.87963 3.977 -8.45619 0 0 0 0 0 0 4 0 0 0 4 -0.05 0 0 
124 2 0.680521 8.66545 4.12841 -0.243156 0 0 0 0 0 0 6 1 1 0 7 0 0 0 
1420 3 -0.649135 8.44561 5.51483 4.78985 0 0 0 -1.59193 4.34847 2.26435 1 5 1 4 6 0 0 170.428 
1160 3 -0.60088 8.71199 4.04618 16.2059 0 0 0 -0.292078 -1.17313 -3.61717 3 4 4 0 7 0 0 93.2964 
784 4 1.00586 8.61116 4.64377 14.1374 0 0 0 -1.14413 1.41611 0.213472 7 0 0 0 7 0 0 243.747 
2272 8 0.956268 9.12708 5.05424 20.2263 0 0 0 0.182648 -0.263706 -0.486886 6 0 0 0 6 0 0 24.6621 
3336 9 -0.677186 8.8897 5.42748 28.7146 0 0 0 0 0 0 5 4 4 0 9 0.0499994 -1.52649e-06 0 
1773 6 1.02069 9.46426 5.14138 -5.49567 0 0 0 0 0 0 6 0 0 0 6 -0.05 0 0 
1599 5 -0.516864 9.62046 3.98375 -3.84718 0 0 0 0 0 0 6 3 3 0 9 -0.0499994 1.61814e-06 0 
117 1 -0.631264 9.29405 5.30769 1.33123 0 0 0 -1.07859 -0.851493 -1.24772 2 4 0 4 6 0 0 22.098 
811 3 -0.586493 10.0338 4.63137 9.43364 0 0 0 -0.0459203 2.38045 4.20402 2 3 3 0 5 0 0 149.722 
753 3 -0.603754 10.1271 4.47817 12.3818 0 0 0 -1.16952 -0.018695 5.89885 4 4 4 0 8 0 0 231.964 
1104 3 -0.610371 9.68618 5.36161 18.2203 0 0 0 5.86742 -5.61065 6.22068 6 4 4 0 10 0 0 670.936 
2326 10 1.00295 9.92133 4.9784 23.6492 0 0 0 -2.9949 1.15151 -2.05849 6 0 0 0 6 0.0499913 1.44917e-08 1054.27 
2989 10 0.966969 9.87704 4.10709 29.7518 0 0 0 0 0 0 7 0 0 0 7 0.0499999 -1.65118e-07 0 
2661 10 0.970581 9.28413 4.57783 26.8904 0 0 0 0.0382281 -1.21581 1.70764 7 0 0 0 7 0.0499962 5.9121e-09 318.882 
3078 9 -0.626368 10.1466 4.47611 32.1118 0 0 0 0 0 0 4 4 4 0 8 0.05 0 0 
1862 5 -0.543407 10.2392 5.0646 -1.25821 0 0 0 0 0 0 5 3 2 1 8 -0.0499866 -6.23931e-08 0 
624 2 0.619763 10.6375 5.11675 4.72027 0 0 0 2.70858 -0.944555 -0.552712 6 0 0 0 6 0 0 610.68 
2174 8 1.02218 10.4511 3.85925 17.3593 0 0 0 -0.332622 -0.688427 -0.72848 6 0 0 0 6 0 0 80.9052 
2454 9 -0.510037 10.6124 4.55138 25.472 0 0 0 6.11925 2.42585 -3.82746 4 3 3 0 7 0.0499937 1.00486e-08 371.887 
1852 5 -0.602683 11.3863 5.01751 -5.61017 0 0 0 0 0 0 4 3 3 0 7 -0.05 0 0 
635 2 0.671339 11.27 5.03525 1.50138 0 0 0 0.0297869 2.35481 2.13879 6 0 0 0 6 0 0 724.201 
2062 5 -0.419146 12.8943 4.32967 -7.61057 0 0 0 0 0 0 2 2 2 0 4 -0.05 0 0 
1926 6 1.00842 12.1109 4.63887 -1.42118 0 0 0 0 0 0 6 1 1 0 7 -0.0499863 -6.71784e-08 0 
899 3 -0.605888 12.6051 4.2473 10.5204 0 0 0 -0.951478 -5.36034 1.77807 3 4 4 0 7 0 0 210.384 
825 3 -0.644195 12.7059 5.42366 8.00184 0 0 0 -1.55414 -0.543092 9.90781 3 4 4 0 7 0 0 647.025 
562 1 -0.661036 12.8238 5.01488 5.10413 0 0 0 3.46708 -1.25544 -2.39751 1 5 2 3 6 0 0 124.08 
898 4 0.866583 12.2857 3.87556 6.7522 0 0 0 0.607041 -1.47675 -1.18128 6 0 0 0 6 0 0 286.166 
1052 3 -0.559444 12.2453 5.30347 17.2473 0 0 0 7.73218 -5.70871 -2.00837 4 5 5 0 9 0 0 618.383 
914 3 -0.559922 12.5218 3.92767 13.2092 0 0 0 2.07484 0.741292 1.7239 6 5 5 0 11 0 0 50.1989 
2280 10 0.910887 12.1479 4.78245 21.4759 0 0 0 -1.61145 -0.632552 0.483142 5 0 0 0 5 0.04999 1.73352e-08 234.341 
3068 9 -0.525417 12.2403 4.38525 28.2824 0 0 0 0 0 0 5 3 3 0 8 0.0499993 -1.84075e-06 0 
3142 10 0.915405 12.1938 4.55638 31.9223 0 0 0 0 0 0 5 0 0 0 5 0.05 0 0 
371 1 -0.625129 13.3784 5.16525 2.20217 0 0 0 2.38951 1.09706 0.86681 3 5 1 4 8 0 0 49.1619 
2240 8 0.996241 13.0813 4.34787 15.3898 0 0 0 1.25209 -0.0976395 -1.1088 7 0 0 0 7 0 0 203.61 
2175 10 0.965348 13.5582 4.61304 24.0862 0 0 0 -0.975504 -2.07355 -2.11753 6 0 0 0 6 0.0499912 1.2753e-08 706.232 
1102 9 -0.641908 13.2741 5.42212 19.707 0 0 0 -3.04451 -1.52413 1.32804 6 4 4 0 10 0.0499899 1.86271e-08 85.6652 
3064 9 -0.535765 13.2498 5.10157 26.0876 0 0 0 -3.80307 1.24552 -5.32095 5 3 3 0 8 0.0499947 8.72748e-09 284.32 
2918 9 -0.628037 13.0241 3.81505 30.3846 0 0 0 0 0 0 6 5 5 0 11 0.0499999 -1.53263e-07 0 
1977 6 0.880749 14.7581 4.81967 -7.3243 0 0 0 0 0 0 5 0 0 0 5 -0.05 0 0 
1943 5 -0.647227 14.2369 4.43833 -1.32075 0 0 0 0 0 0 5 5 4 1 10 -0.0499871 -7.62472e-08 0 
734 4 0.916147 14.1017 4.74673 12.0872 0 0 0 -0.027365 1.5825 -0.465085 6 0 0 0 6 0 0 197.418 
1495 6 1.00955 0.0800003 6.34961 -5.01221 0 0 0 0 0 0 7 0 0 0 7 -0.05 0 0 
1755 6 1.02452 0.384275 6.86601 -1.11789 0 0 0 0 0 0 6 0 0 0 6 -0.0499863 -6.25351e-08 0 
356 1 -0.639261 0.437412 7.05055 5.87938 1 0 0 -0.2549 3.80178 -0.0869523 1 4 1 3 5 0 0 93.172 
1252 4 0.881223 0.85141 5.64635 7.11697 0 0 0 -0.977253 1.21137 0.597136 6 0 0 0 6 0 0 201.601 