ITEM: TIMESTEP
500000
ITEM: NUMBER OF ATOMS
3344
ITEM: BOX BOUNDS pp pp ff
0.0000000000000000e+00 2.9565597895300002e+01
0.0000000000000000e+00 2.9545719921200000e+01
-8.8921683279000003e+00 4.4289169250699999e+01
ITEM: ATOMS id type q x y z ix iy iz vx vy vz v_Ocoord v_Mcoord v_Tacoord v_Hfcoord c_ncoord[11] c_locpot[1] c_locpot[2] v_vtemp2 
1916 5 -0.653657 0.565397 1.81354 -5.14473 0 0 0 0 0 0 2 4 4 0 6 -0.05 0 0 
2060 6 0.961198 0.439399 0.297219 -6.42671 0 0 0 0 0 0 6 0 0 0 6 -0.05 0 0 
446 2 0.708421 0.71767 0.33154 7.84 0 0 0 0.320159 -0.118739 1.11339 7 0 0 0 7 0 0 97.049 
1251 3 -0.616697 0.739345 0.607321 10.3851 1 0 0 -1.5101 4.85221 -3.83798 4 4 3 1 8 0 0 260.121 
1368 4 0.993788 0.0217075 0.867954 13.4605 1 0 0 1.33358 0.323066 0.226165 6 0 0 0 6 0 0 140.298 
1219 3 -0.591964 0.885135 1.68886 15.3513 0 0 0 -10.2702 1.43449 -2.39246 4 4 4 0 8 0 0 726.45 
2628 8 0.973084 0.190995 1.00259 19.2434 0 0 0 2.7324 2.58919 1.72155 6 0 0 0 6 0 0 1242.95 
2158 9 -0.699939 0.780155 1.09684 21.1585 0 0 0 -3.97994 -2.69047 1.15021 3 4 4 0 7 0.0499823 2.04491e-08 156.515 
3132 9 -0.52848 0.679753 1.42961 29.1746 0 0 0 0 0 0 2 3 3 0 5 0.0499995 -1.36698e-06 0 
3180 9 -0.550672 0.826764 0.29725 26.4366 1 1 0 -5.29597 0.270769 -0.782562 2 4 0 4 6 0.0499941 8.65408e-09 184.297 
676 2 0.738121 1.09981 0.0753033 2.78602 0 0 0 -1.08156 2.41342 -0.0969989 6 0 0 0 6 0 0 501.177 
