ITEM: TIMESTEP
500000
ITEM: NUMBER OF ATOMS
2
ITEM: BOX BOUNDS pp pp ff
0.0000000000000000e+00 2.9565597895300002e+01
0.0000000000000000e+00 2.9545719921200000e+01
-8.8921683279000003e+00 4.4289169250699999e+01
ITEM: ATOMS id type q x y z ix iy iz vx vy vz v_Ocoord v_Mcoord v_Tacoord v_Hfcoord c_ncoord[11] c_locpot[1] c_locpot[2] v_vtemp2 
1 11 -0.653657 0.565397 1.81354 -5.14473 0 0 0 0 0 0 2 4 4 0 6 -0.05 0 0 
2 12 0.961198 0.439399 0.297219 -6.42671 0 0 0 0 0 0 6 0 0 0 6 -0.05 0 0 
